
     Program PWSCF v.5.1 starts on  8Jan2023 at 16:40:30 

     This program is part of the open-source Quantum ESPRESSO suite
     for quantum simulation of materials; please cite
         "P. Giannozzi et al., J. Phys.:Condens. Matter 21 395502 (2009);
          URL http://www.quantum-espresso.org", 
     in publications or presentations arising from this work. More details at
     http://www.quantum-espresso.org/quote

     Parallel version (MPI), running on    12 processors
     R & G space division:  proc/nbgrp/npool/nimage =      12
     Waiting for input...
     Reading input from standard input

     Current dimensions of program PWSCF are:
     Max number of different atomic species (ntypx) = 10
     Max number of k-points (npk) =  40000
     Max angular momentum in pseudopotentials (lmaxx) =  3
               file C.pbesol-n-kjpaw_psl.1.0.0.UPF: wavefunction(s)  2S 2P renormalized
               file H.pbesol-kjpaw_psl.0.1.UPF: wavefunction(s)  1S renormalized
               file N.pbesol-n-kjpaw_psl.0.1.UPF: wavefunction(s)  2P renormalized
               file O.pbesol-n-kjpaw_psl.0.1.UPF: wavefunction(s)  2P renormalized

     Subspace diagonalization in iterative solution of the eigenvalue problem:
     scalapack distributed-memory algorithm (size of sub-group:  2*  2 procs)


     Parallelization info
     --------------------
     sticks:   dense  smooth     PW     G-vecs:    dense   smooth      PW
     Min        2417    1207    313               310023   109599   14429
     Max        2418    1208    314               310028   109633   14432
     Sum       29005   14485   3761              3720285  1315387  173157



     bravais-lattice index     =            0
     lattice parameter (alat)  =      22.5090  a.u.
     unit-cell volume          =   11404.2970 (a.u.)^3
     number of atoms/cell      =           44
     number of atomic types    =            4
     number of electrons       =       118.00
     number of Kohn-Sham states=           59
     kinetic-energy cutoff     =      90.0000  Ry
     charge density cutoff     =     720.0000  Ry
     convergence threshold     =      1.0E-08
     mixing beta               =       0.4000
     number of iterations used =            8  plain     mixing
     Exchange-correlation      =  SLA  PW   PSX  PSC ( 1  4 10  8 0)
     nstep                     =           50


     celldm(1)=  22.508999  celldm(2)=   0.000000  celldm(3)=   0.000000
     celldm(4)=   0.000000  celldm(5)=   0.000000  celldm(6)=   0.000000

     crystal axes: (cart. coord. in units of alat)
               a(1) = (   1.000000   0.000000   0.000000 )  
               a(2) = (   0.000000   1.000000   0.000000 )  
               a(3) = (   0.000000   0.000000   1.000000 )  

     reciprocal axes: (cart. coord. in units 2 pi/alat)
               b(1) = (  1.000000  0.000000  0.000000 )  
               b(2) = (  0.000000  1.000000  0.000000 )  
               b(3) = (  0.000000  0.000000  1.000000 )  


     PseudoPot. # 1 for  C read from file:
     ./pseudo/C.pbesol-n-kjpaw_psl.1.0.0.UPF
     MD5 check sum: 5f3a56537b2bcef3348431d8311bb923
     Pseudo is Projector augmented-wave + core cor, Zval =  4.0
     Generated using "atomic" code by A. Dal Corso  v.6.0 svn rev. 13079
     Shape of augmentation charge: PSQ
     Using radial grid of 1073 points,  4 beta functions with: 
                l(1) =   0
                l(2) =   0
                l(3) =   1
                l(4) =   1
     Q(r) pseudized with 0 coefficients 


     PseudoPot. # 2 for  H read from file:
     ./pseudo/H.pbesol-kjpaw_psl.0.1.UPF
     MD5 check sum: 27a6b98f1514c59d399e798f1258b8b7
     Pseudo is Projector augmented-wave, Zval =  1.0
     Generated using "atomic" code by A. Dal Corso  v.5.0.2 svn rev. 9415
     Shape of augmentation charge: PSQ
     Using radial grid of  929 points,  2 beta functions with: 
                l(1) =   0
                l(2) =   0
     Q(r) pseudized with 0 coefficients 


     PseudoPot. # 3 for  N read from file:
     ./pseudo/N.pbesol-n-kjpaw_psl.0.1.UPF
     MD5 check sum: 15bd223d5d75e9eda893d0f4e6bdad1b
     Pseudo is Projector augmented-wave + core cor, Zval =  5.0
     Generated using "atomic" code by A. Dal Corso  v.6.3
     Shape of augmentation charge: PSQ
     Using radial grid of 1085 points,  4 beta functions with: 
                l(1) =   0
                l(2) =   0
                l(3) =   1
                l(4) =   1
     Q(r) pseudized with 0 coefficients 


     PseudoPot. # 4 for  O read from file:
     ./pseudo/O.pbesol-n-kjpaw_psl.0.1.UPF
     MD5 check sum: 81d73d1479e654e5638b0319f0d6c2c7
     Pseudo is Projector augmented-wave + core cor, Zval =  6.0
     Generated using "atomic" code by A. Dal Corso  v.6.0 svn rev. 13079
     Shape of augmentation charge: BESSEL
     Using radial grid of 1095 points,  4 beta functions with: 
                l(1) =   0
                l(2) =   0
                l(3) =   1
                l(4) =   1
     Q(r) pseudized with 0 coefficients 


     atomic species   valence    mass     pseudopotential
        C              4.00    12.01070      C( 1.00)
        H              1.00     1.00794      H( 1.00)
        N              5.00    14.00670      N( 1.00)
        O              6.00    15.99940      O( 1.00)

     No symmetry found



   Cartesian axes

     site n.     atom                  positions (alat units)
         1           H   tau(   1) = (   0.7466160   0.8635640   0.7276420  )
         2           H   tau(   2) = (   0.6906180   0.9000000   0.6064120  )
         3           H   tau(   3) = (   0.8277150   0.7250390   0.6481370  )
         4           H   tau(   4) = (   0.8388810   0.7375490   0.4461430  )
         5           H   tau(   5) = (   0.6535940   0.6326900   0.7255430  )
         6           H   tau(   6) = (   0.7168120   0.5594820   0.6096020  )
         7           H   tau(   7) = (   0.5398360   0.5637630   0.5672050  )
         8           H   tau(   8) = (   0.7527440   0.2951100   0.4052580  )
         9           H   tau(   9) = (   0.5693040   0.2682440   0.3945950  )
        10           H   tau(  10) = (   0.6718120   0.1604470   0.1776580  )
        11           H   tau(  11) = (   0.4939970   0.3194560   0.1842900  )
        12           H   tau(  12) = (   0.6018790   0.4247350   0.2072100  )
        13           H   tau(  13) = (   0.4879520   0.4353970   0.4007240  )
        14           H   tau(  14) = (   0.3772170   0.3946800   0.3074510  )
        15           H   tau(  15) = (   0.7256270   0.4060130   0.3269280  )
        16           H   tau(  16) = (   0.3729350   0.6493130   0.1581800  )
        17           H   tau(  17) = (   0.3362470   0.5070940   0.1575930  )
        18           H   tau(  18) = (   0.1611190   0.4183550   0.7790220  )
        19           H   tau(  19) = (   0.3536260   0.3223950   0.7812050  )
        20           H   tau(  20) = (   0.2547280   0.4864410   0.6104420  )
        21           H   tau(  21) = (   0.3850250   0.2098120   0.6160670  )
        22           H   tau(  22) = (   0.2606880   0.1554940   0.6787810  )
        23           H   tau(  23) = (   0.2512850   0.2450730   0.5594820  )
        24           H   tau(  24) = (   0.1847100   0.2974600   0.8424070  )
        25           C   tau(  25) = (   0.7447690   0.7383040   0.6117850  )
        26           C   tau(  26) = (   0.7580330   0.7541710   0.4856020  )
        27           C   tau(  27) = (   0.6713930   0.6344530   0.6357960  )
        28           C   tau(  28) = (   0.6087630   0.2811730   0.3129920  )
        29           C   tau(  29) = (   0.6121210   0.1722850   0.2459960  )
        30           C   tau(  30) = (   0.5426910   0.3666390   0.2457450  )
        31           C   tau(  31) = (   0.4597440   0.4338020   0.3136640  )
        32           C   tau(  32) = (   0.4524400   0.5525130   0.2716860  )
        33           C   tau(  33) = (   0.2920030   0.3303700   0.7139570  )
        34           C   tau(  34) = (   0.3211350   0.4357330   0.6477170  )
        35           C   tau(  35) = (   0.2976280   0.2277780   0.6364680  )
        36           N   tau(  36) = (   0.6967470   0.8381260   0.6640050  )
        37           N   tau(  37) = (   0.7243680   0.3213040   0.3297830  )
        38           N   tau(  38) = (   0.3818340   0.5710670   0.1895790  )
        39           N   tau(  39) = (   0.1821070   0.3370030   0.7674360  )
        40           O   tau(  40) = (   0.6782770   0.7856540   0.4275050  )
        41           O   tau(  41) = (   0.5677090   0.6386510   0.5780350  )
        42           O   tau(  42) = (   0.5465530   0.1000000   0.2713510  )
        43           O   tau(  43) = (   0.5086050   0.6265610   0.3132440  )
        44           O   tau(  44) = (   0.4205370   0.4634380   0.6364680  )

     number of k points=    14
                       cart. coord. in units 2pi/alat
        k(    1) = (   0.0000000   0.0000000   0.0000000), wk =   0.0740741
        k(    2) = (   0.0000000   0.0000000   0.3333333), wk =   0.1481481
        k(    3) = (   0.0000000   0.3333333   0.3333333), wk =   0.1481481
        k(    4) = (   0.3333333   0.3333333   0.3333333), wk =   0.1481481
        k(    5) = (   0.3333333   0.0000000   0.0000000), wk =   0.1481481
        k(    6) = (   0.0000000   0.3333333   0.0000000), wk =   0.1481481
        k(    7) = (   0.0000000  -0.3333333   0.3333333), wk =   0.1481481
        k(    8) = (   0.3333333   0.0000000  -0.3333333), wk =   0.1481481
        k(    9) = (  -0.3333333   0.0000000  -0.3333333), wk =   0.1481481
        k(   10) = (   0.3333333  -0.3333333   0.0000000), wk =   0.1481481
        k(   11) = (  -0.3333333  -0.3333333   0.0000000), wk =   0.1481481
        k(   12) = (  -0.3333333  -0.3333333   0.3333333), wk =   0.1481481
        k(   13) = (  -0.3333333   0.3333333  -0.3333333), wk =   0.1481481
        k(   14) = (   0.3333333  -0.3333333  -0.3333333), wk =   0.1481481

     Dense  grid:  3720285 G-vectors     FFT dimensions: ( 200, 200, 200)

     Smooth grid:  1315387 G-vectors     FFT dimensions: ( 135, 135, 135)

     Largest allocated arrays     est. size (Mb)     dimensions
        Kohn-Sham Wavefunctions        12.36 Mb     (   13727,   59)
        NL pseudopotentials            43.57 Mb     (   13727,  208)
        Each V/rho on FFT grid         10.38 Mb     (  680000)
        Each G-vector array             2.37 Mb     (  310025)
        G-vector shells                 0.06 Mb     (    7666)
     Largest temporary arrays     est. size (Mb)     dimensions
        Auxiliary wavefunctions        49.43 Mb     (   13727,  236)
        Each subspace H/S matrix        0.21 Mb     (     118,  118)
        Each <psi_i|beta_j> matrix      0.19 Mb     (     208,   59)
        Arrays for rho mixing          83.01 Mb     (  680000,    8)

     Initial potential from superposition of free atoms

     starting charge  117.99924, renormalised to  118.00000

     negative rho (up, down):  1.716E-05 0.000E+00
     Starting wfc are  104 randomized atomic wfcs
     Checking if some PAW data can be deallocated... 

     total cpu time spent up to now is      146.2 secs

     per-process dynamical memory:   393.1 Mb

     Self-consistent Calculation

     iteration #  1     ecut=    90.00 Ry     beta=0.40
     Davidson diagonalization with overlap
     ethr =  1.00E-02,  avg # of iterations =  2.0

     negative rho (up, down):  3.616E-05 0.000E+00

     total cpu time spent up to now is      440.0 secs

     total energy              =    -543.23383073 Ry
     Harris-Foulkes estimate   =    -545.93860401 Ry
     estimated scf accuracy    <       5.59738356 Ry

     iteration #  2     ecut=    90.00 Ry     beta=0.40
     Davidson diagonalization with overlap
     ethr =  4.74E-03,  avg # of iterations =  3.0

     negative rho (up, down):  6.336E-05 0.000E+00

     total cpu time spent up to now is      714.6 secs

     total energy              =    -543.99491359 Ry
     Harris-Foulkes estimate   =    -544.20528729 Ry
     estimated scf accuracy    <       0.59121417 Ry

     iteration #  3     ecut=    90.00 Ry     beta=0.40
     Davidson diagonalization with overlap
     ethr =  5.01E-04,  avg # of iterations =  4.0

     negative rho (up, down):  1.123E-04 0.000E+00

     total cpu time spent up to now is      944.4 secs

     total energy              =    -544.00213451 Ry
     Harris-Foulkes estimate   =    -544.07250684 Ry
     estimated scf accuracy    <       0.18732247 Ry

     iteration #  4     ecut=    90.00 Ry     beta=0.40
     Davidson diagonalization with overlap
     ethr =  1.59E-04,  avg # of iterations =  4.9

     negative rho (up, down):  1.664E-04 0.000E+00

     total cpu time spent up to now is     1159.2 secs

     total energy              =    -544.01043328 Ry
     Harris-Foulkes estimate   =    -544.02586548 Ry
     estimated scf accuracy    <       0.04144529 Ry

     iteration #  5     ecut=    90.00 Ry     beta=0.40
     Davidson diagonalization with overlap
     ethr =  3.51E-05,  avg # of iterations =  4.0

     negative rho (up, down):  1.669E-04 0.000E+00

     total cpu time spent up to now is     1411.5 secs

     total energy              =    -544.01574926 Ry
     Harris-Foulkes estimate   =    -544.01814837 Ry
     estimated scf accuracy    <       0.00485801 Ry

     iteration #  6     ecut=    90.00 Ry     beta=0.40
     Davidson diagonalization with overlap
     ethr =  4.12E-06,  avg # of iterations =  3.7

     negative rho (up, down):  1.724E-04 0.000E+00

     total cpu time spent up to now is     1703.6 secs

     total energy              =    -544.01681694 Ry
     Harris-Foulkes estimate   =    -544.01719308 Ry
     estimated scf accuracy    <       0.00105253 Ry

     iteration #  7     ecut=    90.00 Ry     beta=0.40
     Davidson diagonalization with overlap
     ethr =  8.92E-07,  avg # of iterations =  4.0

     negative rho (up, down):  1.701E-04 0.000E+00

     total cpu time spent up to now is     1958.3 secs

     total energy              =    -544.01698799 Ry
     Harris-Foulkes estimate   =    -544.01706247 Ry
     estimated scf accuracy    <       0.00020282 Ry

     iteration #  8     ecut=    90.00 Ry     beta=0.40
     Davidson diagonalization with overlap
     ethr =  1.72E-07,  avg # of iterations =  4.0

     negative rho (up, down):  1.681E-04 0.000E+00

     total cpu time spent up to now is     2207.2 secs

     total energy              =    -544.01702363 Ry
     Harris-Foulkes estimate   =    -544.01702666 Ry
     estimated scf accuracy    <       0.00002067 Ry

     iteration #  9     ecut=    90.00 Ry     beta=0.40
     Davidson diagonalization with overlap
     ethr =  1.75E-08,  avg # of iterations =  3.0

     negative rho (up, down):  1.677E-04 0.000E+00

     total cpu time spent up to now is     2504.0 secs

     total energy              =    -544.01702794 Ry
     Harris-Foulkes estimate   =    -544.01702876 Ry
     estimated scf accuracy    <       0.00000445 Ry

     iteration # 10     ecut=    90.00 Ry     beta=0.40
     Davidson diagonalization with overlap
     ethr =  3.77E-09,  avg # of iterations =  4.0

     negative rho (up, down):  1.671E-04 0.000E+00

     total cpu time spent up to now is     2727.8 secs

     total energy              =    -544.01702861 Ry
     Harris-Foulkes estimate   =    -544.01702859 Ry
     estimated scf accuracy    <       0.00000088 Ry

     iteration # 11     ecut=    90.00 Ry     beta=0.40
     Davidson diagonalization with overlap
     ethr =  7.48E-10,  avg # of iterations =  4.0

     negative rho (up, down):  1.670E-04 0.000E+00

     total cpu time spent up to now is     3015.5 secs

     total energy              =    -544.01702879 Ry
     Harris-Foulkes estimate   =    -544.01702886 Ry
     estimated scf accuracy    <       0.00000033 Ry

     iteration # 12     ecut=    90.00 Ry     beta=0.40
     Davidson diagonalization with overlap
     ethr =  2.81E-10,  avg # of iterations =  4.0

     negative rho (up, down):  1.669E-04 0.000E+00

     total cpu time spent up to now is     3239.6 secs

     total energy              =    -544.01702883 Ry
     Harris-Foulkes estimate   =    -544.01702883 Ry
     estimated scf accuracy    <       0.00000005 Ry

     iteration # 13     ecut=    90.00 Ry     beta=0.40
     Davidson diagonalization with overlap
     ethr =  3.83E-11,  avg # of iterations =  4.0

     negative rho (up, down):  1.669E-04 0.000E+00

     total cpu time spent up to now is     3540.0 secs

     total energy              =    -544.01702884 Ry
     Harris-Foulkes estimate   =    -544.01702884 Ry
     estimated scf accuracy    <       0.00000001 Ry

     iteration # 14     ecut=    90.00 Ry     beta=0.40
     Davidson diagonalization with overlap
     ethr =  1.04E-11,  avg # of iterations =  4.0

     negative rho (up, down):  1.669E-04 0.000E+00

     total cpu time spent up to now is     3777.5 secs

     End of self-consistent calculation

          k = 0.0000 0.0000 0.0000 (164415 PWs)   bands (ev):

   -25.1565 -24.8703 -24.4687 -24.0728 -23.3091 -21.4828 -21.4676 -21.1413
   -20.6106 -18.5608 -17.5265 -16.5973 -16.3505 -15.1622 -14.3585 -14.2335
   -13.3183 -13.2847 -12.8393 -12.1984 -12.0692 -11.5513 -11.4336 -11.4125
   -11.1318 -10.7545 -10.5579 -10.2452 -10.0386 -10.0196  -9.9133  -9.5389
    -9.3856  -9.0514  -9.0130  -8.8121  -8.7395  -8.6247  -8.3090  -8.2948
    -8.2086  -8.0489  -7.9572  -7.7574  -7.6545  -7.3758  -7.3226  -7.1058
    -7.0438  -5.8486  -5.1652  -5.0897  -4.7956  -4.5894  -4.3236  -4.2951
    -4.1399  -3.9181  -3.4533

          k = 0.0000 0.0000 0.3333 (164448 PWs)   bands (ev):

   -25.1565 -24.8703 -24.4687 -24.0728 -23.3091 -21.4828 -21.4676 -21.1413
   -20.6106 -18.5608 -17.5265 -16.5973 -16.3505 -15.1622 -14.3585 -14.2335
   -13.3183 -13.2847 -12.8393 -12.1984 -12.0692 -11.5513 -11.4336 -11.4125
   -11.1319 -10.7545 -10.5579 -10.2452 -10.0387 -10.0196  -9.9133  -9.5388
    -9.3856  -9.0514  -9.0130  -8.8121  -8.7395  -8.6247  -8.3090  -8.2948
    -8.2085  -8.0488  -7.9571  -7.7572  -7.6546  -7.3759  -7.3226  -7.1058
    -7.0440  -5.8486  -5.1653  -5.0897  -4.7956  -4.5894  -4.3236  -4.2951
    -4.1400  -3.9181  -3.4532

          k = 0.0000 0.3333 0.3333 (164442 PWs)   bands (ev):

   -25.1565 -24.8703 -24.4687 -24.0728 -23.3091 -21.4828 -21.4676 -21.1413
   -20.6106 -18.5608 -17.5265 -16.5973 -16.3506 -15.1622 -14.3584 -14.2335
   -13.3183 -13.2847 -12.8393 -12.1984 -12.0692 -11.5513 -11.4337 -11.4125
   -11.1320 -10.7546 -10.5578 -10.2451 -10.0387 -10.0191  -9.9134  -9.5389
    -9.3861  -9.0516  -9.0129  -8.8135  -8.7386  -8.6248  -8.3086  -8.2951
    -8.2085  -8.0483  -7.9571  -7.7571  -7.6537  -7.3757  -7.3257  -7.1040
    -7.0442  -5.8486  -5.1652  -5.0897  -4.7955  -4.5895  -4.3226  -4.2955
    -4.1389  -3.9199  -3.4533

          k = 0.3333 0.3333 0.3333 (164442 PWs)   bands (ev):

   -25.1565 -24.8703 -24.4687 -24.0728 -23.3091 -21.4828 -21.4676 -21.1413
   -20.6106 -18.5608 -17.5265 -16.5973 -16.3505 -15.1622 -14.3584 -14.2335
   -13.3183 -13.2847 -12.8393 -12.1984 -12.0692 -11.5512 -11.4337 -11.4125
   -11.1320 -10.7546 -10.5578 -10.2451 -10.0387 -10.0191  -9.9134  -9.5390
    -9.3861  -9.0514  -9.0129  -8.8135  -8.7386  -8.6248  -8.3086  -8.2951
    -8.2085  -8.0483  -7.9571  -7.7571  -7.6536  -7.3756  -7.3257  -7.1040
    -7.0441  -5.8485  -5.1654  -5.0897  -4.7955  -4.5893  -4.3228  -4.2955
    -4.1388  -3.9199  -3.4532

          k = 0.3333 0.0000 0.0000 (164448 PWs)   bands (ev):

   -25.1565 -24.8703 -24.4687 -24.0728 -23.3091 -21.4828 -21.4676 -21.1413
   -20.6106 -18.5608 -17.5265 -16.5973 -16.3505 -15.1622 -14.3585 -14.2335
   -13.3183 -13.2848 -12.8393 -12.1984 -12.0692 -11.5513 -11.4336 -11.4126
   -11.1318 -10.7545 -10.5579 -10.2452 -10.0387 -10.0196  -9.9133  -9.5389
    -9.3856  -9.0512  -9.0131  -8.8121  -8.7395  -8.6247  -8.3090  -8.2948
    -8.2086  -8.0489  -7.9571  -7.7574  -7.6544  -7.3758  -7.3226  -7.1058
    -7.0438  -5.8485  -5.1654  -5.0897  -4.7956  -4.5892  -4.3239  -4.2951
    -4.1399  -3.9180  -3.4533

          k = 0.0000 0.3333 0.0000 (164448 PWs)   bands (ev):

   -25.1565 -24.8703 -24.4687 -24.0728 -23.3091 -21.4828 -21.4676 -21.1413
   -20.6106 -18.5608 -17.5265 -16.5973 -16.3506 -15.1622 -14.3584 -14.2335
   -13.3183 -13.2847 -12.8393 -12.1984 -12.0692 -11.5513 -11.4337 -11.4125
   -11.1319 -10.7546 -10.5578 -10.2451 -10.0387 -10.0191  -9.9134  -9.5390
    -9.3861  -9.0516  -9.0129  -8.8134  -8.7386  -8.6247  -8.3086  -8.2951
    -8.2085  -8.0484  -7.9571  -7.7573  -7.6536  -7.3756  -7.3257  -7.1040
    -7.0440  -5.8486  -5.1652  -5.0897  -4.7955  -4.5894  -4.3226  -4.2955
    -4.1388  -3.9199  -3.4534

          k = 0.0000-0.3333 0.3333 (164442 PWs)   bands (ev):

   -25.1565 -24.8703 -24.4687 -24.0728 -23.3091 -21.4828 -21.4676 -21.1413
   -20.6106 -18.5608 -17.5265 -16.5973 -16.3506 -15.1622 -14.3584 -14.2335
   -13.3183 -13.2847 -12.8393 -12.1984 -12.0692 -11.5513 -11.4337 -11.4125
   -11.1320 -10.7546 -10.5578 -10.2451 -10.0387 -10.0191  -9.9133  -9.5389
    -9.3861  -9.0516  -9.0129  -8.8135  -8.7386  -8.6248  -8.3086  -8.2951
    -8.2085  -8.0483  -7.9571  -7.7571  -7.6537  -7.3757  -7.3257  -7.1040
    -7.0442  -5.8486  -5.1652  -5.0897  -4.7955  -4.5895  -4.3226  -4.2955
    -4.1389  -3.9199  -3.4533

          k = 0.3333 0.0000-0.3333 (164442 PWs)   bands (ev):

   -25.1565 -24.8703 -24.4687 -24.0728 -23.3091 -21.4828 -21.4676 -21.1413
   -20.6106 -18.5608 -17.5265 -16.5973 -16.3505 -15.1622 -14.3585 -14.2335
   -13.3183 -13.2847 -12.8393 -12.1984 -12.0692 -11.5513 -11.4336 -11.4125
   -11.1319 -10.7545 -10.5579 -10.2452 -10.0387 -10.0196  -9.9133  -9.5389
    -9.3856  -9.0512  -9.0131  -8.8121  -8.7395  -8.6247  -8.3090  -8.2948
    -8.2086  -8.0488  -7.9571  -7.7573  -7.6545  -7.3759  -7.3226  -7.1058
    -7.0440  -5.8485  -5.1654  -5.0897  -4.7956  -4.5893  -4.3238  -4.2950
    -4.1400  -3.9181  -3.4531

          k =-0.3333 0.0000-0.3333 (164442 PWs)   bands (ev):

   -25.1565 -24.8703 -24.4687 -24.0728 -23.3091 -21.4828 -21.4676 -21.1413
   -20.6106 -18.5608 -17.5265 -16.5973 -16.3505 -15.1622 -14.3585 -14.2335
   -13.3183 -13.2847 -12.8393 -12.1984 -12.0692 -11.5513 -11.4336 -11.4125
   -11.1319 -10.7545 -10.5579 -10.2452 -10.0387 -10.0196  -9.9133  -9.5389
    -9.3856  -9.0512  -9.0131  -8.8121  -8.7395  -8.6247  -8.3090  -8.2948
    -8.2086  -8.0488  -7.9571  -7.7573  -7.6545  -7.3759  -7.3226  -7.1058
    -7.0440  -5.8485  -5.1654  -5.0897  -4.7956  -4.5893  -4.3238  -4.2950
    -4.1400  -3.9181  -3.4531

          k = 0.3333-0.3333 0.0000 (164442 PWs)   bands (ev):

   -25.1565 -24.8703 -24.4687 -24.0728 -23.3091 -21.4828 -21.4676 -21.1413
   -20.6106 -18.5608 -17.5265 -16.5973 -16.3505 -15.1622 -14.3584 -14.2335
   -13.3183 -13.2848 -12.8393 -12.1984 -12.0692 -11.5512 -11.4337 -11.4126
   -11.1319 -10.7546 -10.5578 -10.2451 -10.0387 -10.0191  -9.9134  -9.5390
    -9.3861  -9.0514  -9.0129  -8.8134  -8.7386  -8.6247  -8.3086  -8.2951
    -8.2085  -8.0484  -7.9571  -7.7573  -7.6535  -7.3756  -7.3256  -7.1040
    -7.0440  -5.8485  -5.1654  -5.0897  -4.7955  -4.5893  -4.3229  -4.2955
    -4.1388  -3.9198  -3.4534

          k =-0.3333-0.3333 0.0000 (164442 PWs)   bands (ev):

   -25.1565 -24.8703 -24.4687 -24.0728 -23.3091 -21.4828 -21.4676 -21.1413
   -20.6106 -18.5608 -17.5265 -16.5973 -16.3505 -15.1622 -14.3584 -14.2335
   -13.3183 -13.2848 -12.8393 -12.1984 -12.0692 -11.5512 -11.4337 -11.4126
   -11.1319 -10.7546 -10.5578 -10.2451 -10.0387 -10.0191  -9.9134  -9.5390
    -9.3861  -9.0514  -9.0129  -8.8134  -8.7386  -8.6247  -8.3086  -8.2951
    -8.2086  -8.0484  -7.9571  -7.7573  -7.6535  -7.3756  -7.3256  -7.1040
    -7.0440  -5.8485  -5.1654  -5.0897  -4.7955  -4.5893  -4.3229  -4.2955
    -4.1388  -3.9198  -3.4534

          k =-0.3333-0.3333 0.3333 (164442 PWs)   bands (ev):

   -25.1565 -24.8703 -24.4687 -24.0728 -23.3091 -21.4828 -21.4676 -21.1413
   -20.6106 -18.5608 -17.5265 -16.5973 -16.3505 -15.1622 -14.3584 -14.2335
   -13.3183 -13.2847 -12.8393 -12.1984 -12.0692 -11.5512 -11.4337 -11.4125
   -11.1320 -10.7546 -10.5578 -10.2451 -10.0387 -10.0191  -9.9134  -9.5390
    -9.3861  -9.0514  -9.0129  -8.8135  -8.7386  -8.6248  -8.3085  -8.2951
    -8.2085  -8.0483  -7.9571  -7.7571  -7.6536  -7.3756  -7.3257  -7.1040
    -7.0442  -5.8485  -5.1654  -5.0897  -4.7955  -4.5893  -4.3228  -4.2955
    -4.1388  -3.9199  -3.4532

          k =-0.3333 0.3333-0.3333 (164442 PWs)   bands (ev):

   -25.1565 -24.8703 -24.4687 -24.0728 -23.3091 -21.4828 -21.4676 -21.1413
   -20.6106 -18.5608 -17.5265 -16.5973 -16.3505 -15.1622 -14.3584 -14.2335
   -13.3183 -13.2847 -12.8393 -12.1984 -12.0692 -11.5512 -11.4337 -11.4125
   -11.1320 -10.7546 -10.5578 -10.2451 -10.0387 -10.0191  -9.9134  -9.5390
    -9.3861  -9.0514  -9.0130  -8.8135  -8.7386  -8.6248  -8.3085  -8.2951
    -8.2085  -8.0483  -7.9571  -7.7571  -7.6536  -7.3757  -7.3257  -7.1040
    -7.0442  -5.8485  -5.1654  -5.0897  -4.7955  -4.5893  -4.3228  -4.2955
    -4.1388  -3.9199  -3.4532

          k = 0.3333-0.3333-0.3333 (164442 PWs)   bands (ev):

   -25.1565 -24.8703 -24.4687 -24.0728 -23.3091 -21.4828 -21.4676 -21.1413
   -20.6106 -18.5608 -17.5265 -16.5973 -16.3505 -15.1622 -14.3584 -14.2335
   -13.3183 -13.2847 -12.8393 -12.1984 -12.0692 -11.5512 -11.4337 -11.4125
   -11.1320 -10.7546 -10.5578 -10.2451 -10.0387 -10.0191  -9.9134  -9.5390
    -9.3861  -9.0514  -9.0130  -8.8135  -8.7386  -8.6248  -8.3086  -8.2951
    -8.2085  -8.0483  -7.9571  -7.7571  -7.6536  -7.3756  -7.3256  -7.1040
    -7.0441  -5.8485  -5.1654  -5.0897  -4.7955  -4.5893  -4.3228  -4.2955
    -4.1389  -3.9199  -3.4532

     highest occupied level (ev):    -3.4531

!    total energy              =    -544.01702884 Ry
     Harris-Foulkes estimate   =    -544.01702884 Ry
     estimated scf accuracy    <          1.9E-09 Ry

     total all-electron energy =     -2049.155894 Ry

     The total energy is the sum of the following terms:

     one-electron contribution =   -1151.73980311 Ry
     hartree contribution      =     599.89453138 Ry
     xc contribution           =    -125.16316356 Ry
     ewald contribution        =     275.00145895 Ry
     one-center paw contrib.   =    -142.01005251 Ry

     convergence has been achieved in  14 iterations

     Forces acting on atoms (Ry/au):


     negative rho (up, down):  1.669E-04 0.000E+00
     atom    1 type  2   force =     0.00847918    0.01195775    0.01169776
     atom    2 type  2   force =    -0.00982698    0.01957399   -0.00991163
     atom    3 type  2   force =     0.01875014   -0.01903330    0.00413190
     atom    4 type  2   force =     0.03479666   -0.01381014   -0.01035041
     atom    5 type  2   force =     0.01065706   -0.00205524    0.02659232
     atom    6 type  2   force =     0.01858282   -0.02060774    0.00338884
     atom    7 type  2   force =    -0.01344101   -0.01859504    0.00402161
     atom    8 type  2   force =     0.01375811   -0.00130371    0.01540069
     atom    9 type  2   force =    -0.01932644   -0.02027274    0.00630902
     atom   10 type  2   force =     0.02906747    0.01008302   -0.02568753
     atom   11 type  2   force =     0.00188187    0.00389122   -0.03023008
     atom   12 type  2   force =     0.01112021    0.00137247   -0.02280789
     atom   13 type  2   force =    -0.00556091    0.00940842    0.01439973
     atom   14 type  2   force =    -0.01451210   -0.01151962    0.01238618
     atom   15 type  2   force =     0.00726700    0.02241532    0.00555523
     atom   16 type  2   force =     0.00096083    0.01008353   -0.00472563
     atom   17 type  2   force =    -0.00910183    0.00042716   -0.00832451
     atom   18 type  2   force =    -0.01250696    0.01730885    0.01373583
     atom   19 type  2   force =     0.03191564    0.00045598   -0.00189952
     atom   20 type  2   force =    -0.03050087    0.01423251   -0.01427406
     atom   21 type  2   force =     0.01106327   -0.00586598   -0.00749248
     atom   22 type  2   force =    -0.00534213   -0.00853185    0.00438930
     atom   23 type  2   force =    -0.00973235   -0.00430084   -0.01239477
     atom   24 type  2   force =    -0.00602149   -0.00424101    0.01606137
     atom   25 type  1   force =    -0.01475054   -0.00218483   -0.00974577
     atom   26 type  1   force =    -0.09559096    0.02817968   -0.01150991
     atom   27 type  1   force =    -0.02171784    0.00639065   -0.03087648
     atom   28 type  1   force =     0.06446715    0.01294146   -0.02192996
     atom   29 type  1   force =    -0.02987157    0.02612566    0.06217768
     atom   30 type  1   force =    -0.00858103   -0.01490617    0.00010673
     atom   31 type  1   force =    -0.00739508    0.00014180    0.00267457
     atom   32 type  1   force =     0.03872711   -0.01455112    0.07146591
     atom   33 type  1   force =    -0.01509509   -0.00080435    0.00126206
     atom   34 type  1   force =     0.09560314   -0.02634784    0.03124738
     atom   35 type  1   force =     0.01130763    0.02278788    0.00786724
     atom   36 type  3   force =    -0.01231550   -0.01030757   -0.00337119
     atom   37 type  3   force =    -0.01565348   -0.01434532   -0.01578437
     atom   38 type  3   force =    -0.06618150   -0.00449408   -0.07364292
     atom   39 type  3   force =    -0.01263903    0.00423322   -0.03544055
     atom   40 type  4   force =     0.05708278   -0.00808689    0.03065845
     atom   41 type  4   force =     0.02135959    0.03877316    0.00291755
     atom   42 type  4   force =    -0.02807217   -0.05136262   -0.00694485
     atom   43 type  4   force =     0.03414663    0.03297413    0.01493757
     atom   44 type  4   force =    -0.05725745   -0.01622983   -0.00604044

     Total force =     0.290457     Total SCF correction =     0.000071

     BFGS Geometry Optimization

     number of scf cycles    =   1
     number of bfgs steps    =   0

     energy   new            =    -544.0170288445 Ry

     new trust radius        =       0.1039738769 bohr
     new conv_thr            =       0.0000000100 Ry


ATOMIC_POSITIONS (crystal)
H        0.746992702   0.864095243   0.728161693
H        0.690181420   0.900869607   0.605971659
H        0.828548007   0.724193414   0.648320567
H        0.840426900   0.736935461   0.445683166
H        0.654067458   0.632598693   0.726724408
H        0.717637573   0.558566467   0.609752555
H        0.539238861   0.562936884   0.567383667
H        0.753355227   0.295052080   0.405942201
H        0.568445391   0.267343350   0.394875289
H        0.673103371   0.160894955   0.176516788
H        0.494080605   0.319628874   0.182946978
H        0.602373034   0.424795974   0.206196721
H        0.487704947   0.435814985   0.401363732
H        0.376572275   0.394168221   0.308001277
H        0.725949849   0.407008838   0.327174800
H        0.372977686   0.649760978   0.157970056
H        0.335842636   0.507112977   0.157223170
H        0.160563357   0.419123975   0.779632237
H        0.355043906   0.322415258   0.781120610
H        0.253372948   0.487073303   0.609807851
H        0.385516504   0.209551394   0.615734134
H        0.260450667   0.155114958   0.678976002
H        0.250852624   0.244881928   0.558931341
H        0.184442485   0.297271586   0.843120553
C        0.744113683   0.738206935   0.611352028
C        0.753786211   0.755422930   0.485090653
C        0.670428148   0.634736915   0.634424261
C        0.611627061   0.281747946   0.312017725
C        0.610793906   0.173445676   0.248758348
C        0.542309773   0.365976769   0.245749742
C        0.459415461   0.433808300   0.313782822
C        0.454160517   0.551866542   0.274860993
C        0.291332375   0.330334265   0.714013069
C        0.325382330   0.434562453   0.649105217
C        0.298130360   0.228790390   0.636817515
N        0.696199863   0.837668069   0.663855229
N        0.723672568   0.320666685   0.329081753
N        0.378893776   0.570867343   0.186307290
N        0.181545490   0.337191068   0.765861494
O        0.680812998   0.785294726   0.428867053
O        0.568657936   0.640373563   0.578164617
O        0.545305847   0.097718130   0.271042463
O        0.510122021   0.628025931   0.313907627
O        0.417993242   0.462716962   0.636199643



     Writing output data file aiida.save
     NEW-OLD atomic charge density approx. for the potential

     negative rho (up, down):  1.451E-04 0.000E+00

     total cpu time spent up to now is     3874.0 secs

     per-process dynamical memory:   361.1 Mb

     Self-consistent Calculation

     iteration #  1     ecut=    90.00 Ry     beta=0.40
     Davidson diagonalization with overlap
     ethr =  1.00E-06,  avg # of iterations =  8.0

     negative rho (up, down):  1.466E-04 0.000E+00

     total cpu time spent up to now is     4620.2 secs

     total energy              =    -544.01533923 Ry
     Harris-Foulkes estimate   =    -544.01817321 Ry
     estimated scf accuracy    <       0.03120318 Ry

     iteration #  2     ecut=    90.00 Ry     beta=0.40
     Davidson diagonalization with overlap
     ethr =  2.64E-05,  avg # of iterations =  4.0

     negative rho (up, down):  1.496E-04 0.000E+00

     total cpu time spent up to now is     4856.0 secs

     total energy              =    -544.01783584 Ry
     Harris-Foulkes estimate   =    -544.01949303 Ry
     estimated scf accuracy    <       0.00450651 Ry

     iteration #  3     ecut=    90.00 Ry     beta=0.40
     Davidson diagonalization with overlap
     ethr =  3.82E-06,  avg # of iterations =  4.0

     negative rho (up, down):  1.534E-04 0.000E+00

     total cpu time spent up to now is     5092.9 secs

     total energy              =    -544.01809971 Ry
     Harris-Foulkes estimate   =    -544.01847381 Ry
     estimated scf accuracy    <       0.00112232 Ry

     iteration #  4     ecut=    90.00 Ry     beta=0.40
     Davidson diagonalization with overlap
     ethr =  9.51E-07,  avg # of iterations =  4.0

     negative rho (up, down):  1.567E-04 0.000E+00

     total cpu time spent up to now is     5332.9 secs

     total energy              =    -544.01822756 Ry
     Harris-Foulkes estimate   =    -544.01826648 Ry
     estimated scf accuracy    <       0.00015233 Ry

     iteration #  5     ecut=    90.00 Ry     beta=0.40
     Davidson diagonalization with overlap
     ethr =  1.29E-07,  avg # of iterations =  4.0

     negative rho (up, down):  1.585E-04 0.000E+00

     total cpu time spent up to now is     5587.7 secs

     total energy              =    -544.01824696 Ry
     Harris-Foulkes estimate   =    -544.01825477 Ry
     estimated scf accuracy    <       0.00003014 Ry

     iteration #  6     ecut=    90.00 Ry     beta=0.40
     Davidson diagonalization with overlap
     ethr =  2.55E-08,  avg # of iterations =  4.0

     negative rho (up, down):  1.599E-04 0.000E+00

     total cpu time spent up to now is     5831.5 secs

     total energy              =    -544.01825140 Ry
     Harris-Foulkes estimate   =    -544.01825217 Ry
     estimated scf accuracy    <       0.00000518 Ry

     iteration #  7     ecut=    90.00 Ry     beta=0.40
     Davidson diagonalization with overlap
     ethr =  4.39E-09,  avg # of iterations =  3.0

     negative rho (up, down):  1.607E-04 0.000E+00

     total cpu time spent up to now is     6065.9 secs

     total energy              =    -544.01825208 Ry
     Harris-Foulkes estimate   =    -544.01825216 Ry
     estimated scf accuracy    <       0.00000070 Ry

     iteration #  8     ecut=    90.00 Ry     beta=0.40
     Davidson diagonalization with overlap
     ethr =  5.93E-10,  avg # of iterations =  3.0

     negative rho (up, down):  1.610E-04 0.000E+00

     total cpu time spent up to now is     6351.5 secs

     total energy              =    -544.01825221 Ry
     Harris-Foulkes estimate   =    -544.01825222 Ry
     estimated scf accuracy    <       0.00000009 Ry

     iteration #  9     ecut=    90.00 Ry     beta=0.40
     Davidson diagonalization with overlap
     ethr =  7.96E-11,  avg # of iterations =  4.0

     negative rho (up, down):  1.612E-04 0.000E+00

     total cpu time spent up to now is     6608.0 secs

     total energy              =    -544.01825223 Ry
     Harris-Foulkes estimate   =    -544.01825223 Ry
     estimated scf accuracy    <       0.00000002 Ry

     iteration # 10     ecut=    90.00 Ry     beta=0.40
     Davidson diagonalization with overlap
     ethr =  1.65E-11,  avg # of iterations =  4.0

     negative rho (up, down):  1.615E-04 0.000E+00

     total cpu time spent up to now is     6846.6 secs

     End of self-consistent calculation

          k = 0.0000 0.0000 0.0000 (164415 PWs)   bands (ev):

   -26.2846 -25.2948 -24.6174 -24.4230 -23.5624 -21.4813 -21.4488 -21.0831
   -20.5760 -18.6849 -17.5171 -16.5670 -16.4912 -14.9867 -14.4967 -14.0030
   -13.0126 -12.9780 -12.5699 -12.1599 -11.8078 -11.6378 -11.5975 -11.3989
   -11.1497 -10.8299 -10.5858 -10.3605 -10.1773 -10.1223  -9.9745  -9.7394
    -9.4215  -9.2574  -9.2153  -8.9052  -8.7624  -8.6078  -8.3255  -8.2989
    -8.2623  -8.2165  -8.1492  -7.8738  -7.7354  -7.6120  -7.4450  -7.3002
    -7.1065  -5.9599  -5.1228  -5.1138  -4.8763  -4.6389  -4.4767  -4.3885
    -4.2736  -4.1336  -3.4237

          k = 0.0000 0.0000 0.3333 (164448 PWs)   bands (ev):

   -26.2846 -25.2948 -24.6174 -24.4230 -23.5624 -21.4813 -21.4488 -21.0831
   -20.5760 -18.6849 -17.5171 -16.5670 -16.4912 -14.9867 -14.4967 -14.0030
   -13.0126 -12.9780 -12.5699 -12.1599 -11.8078 -11.6377 -11.5976 -11.3989
   -11.1498 -10.8299 -10.5858 -10.3605 -10.1773 -10.1224  -9.9745  -9.7395
    -9.4215  -9.2574  -9.2153  -8.9051  -8.7624  -8.6078  -8.3254  -8.2988
    -8.2623  -8.2165  -8.1492  -7.8738  -7.7353  -7.6120  -7.4450  -7.3002
    -7.1065  -5.9598  -5.1237  -5.1128  -4.8763  -4.6390  -4.4765  -4.3885
    -4.2737  -4.1336  -3.4236

          k = 0.0000 0.3333 0.3333 (164442 PWs)   bands (ev):

   -26.2846 -25.2948 -24.6174 -24.4230 -23.5624 -21.4813 -21.4488 -21.0831
   -20.5760 -18.6849 -17.5171 -16.5670 -16.4912 -14.9867 -14.4966 -14.0030
   -13.0126 -12.9780 -12.5700 -12.1599 -11.8077 -11.6376 -11.5977 -11.3989
   -11.1498 -10.8300 -10.5857 -10.3600 -10.1773 -10.1224  -9.9746  -9.7395
    -9.4227  -9.2573  -9.2146  -8.9051  -8.7629  -8.6080  -8.3257  -8.2981
    -8.2620  -8.2161  -8.1492  -7.8737  -7.7353  -7.6129  -7.4451  -7.2999
    -7.1065  -5.9598  -5.1237  -5.1128  -4.8763  -4.6391  -4.4748  -4.3893
    -4.2732  -4.1350  -3.4236

          k = 0.3333 0.3333 0.3333 (164442 PWs)   bands (ev):

   -26.2846 -25.2948 -24.6174 -24.4230 -23.5624 -21.4813 -21.4488 -21.0831
   -20.5760 -18.6849 -17.5171 -16.5670 -16.4912 -14.9867 -14.4966 -14.0030
   -13.0126 -12.9780 -12.5700 -12.1599 -11.8077 -11.6376 -11.5977 -11.3989
   -11.1499 -10.8300 -10.5857 -10.3600 -10.1773 -10.1224  -9.9746  -9.7395
    -9.4227  -9.2572  -9.2147  -8.9051  -8.7629  -8.6080  -8.3257  -8.2981
    -8.2620  -8.2161  -8.1492  -7.8737  -7.7353  -7.6128  -7.4450  -7.2999
    -7.1065  -5.9597  -5.1238  -5.1129  -4.8763  -4.6389  -4.4751  -4.3894
    -4.2732  -4.1350  -3.4236

          k = 0.3333 0.0000 0.0000 (164448 PWs)   bands (ev):

   -26.2846 -25.2948 -24.6174 -24.4230 -23.5624 -21.4813 -21.4488 -21.0831
   -20.5760 -18.6849 -17.5171 -16.5670 -16.4912 -14.9867 -14.4967 -14.0030
   -13.0126 -12.9780 -12.5699 -12.1599 -11.8078 -11.6378 -11.5975 -11.3989
   -11.1498 -10.8299 -10.5858 -10.3605 -10.1773 -10.1223  -9.9746  -9.7395
    -9.4216  -9.2573  -9.2153  -8.9052  -8.7624  -8.6078  -8.3255  -8.2990
    -8.2623  -8.2165  -8.1492  -7.8738  -7.7354  -7.6120  -7.4450  -7.3002
    -7.1065  -5.9597  -5.1229  -5.1138  -4.8763  -4.6387  -4.4770  -4.3886
    -4.2735  -4.1335  -3.4237

          k = 0.0000 0.3333 0.0000 (164448 PWs)   bands (ev):

   -26.2846 -25.2948 -24.6174 -24.4230 -23.5624 -21.4813 -21.4488 -21.0831
   -20.5760 -18.6849 -17.5171 -16.5670 -16.4912 -14.9867 -14.4966 -14.0030
   -13.0126 -12.9780 -12.5700 -12.1599 -11.8077 -11.6377 -11.5977 -11.3989
   -11.1498 -10.8300 -10.5857 -10.3600 -10.1773 -10.1224  -9.9747  -9.7395
    -9.4227  -9.2573  -9.2146  -8.9051  -8.7629  -8.6079  -8.3258  -8.2982
    -8.2620  -8.2161  -8.1492  -7.8737  -7.7354  -7.6129  -7.4451  -7.2998
    -7.1064  -5.9599  -5.1228  -5.1138  -4.8763  -4.6389  -4.4750  -4.3893
    -4.2731  -4.1350  -3.4237

          k = 0.0000-0.3333 0.3333 (164442 PWs)   bands (ev):

   -26.2846 -25.2948 -24.6174 -24.4230 -23.5624 -21.4813 -21.4488 -21.0831
   -20.5760 -18.6849 -17.5171 -16.5670 -16.4912 -14.9867 -14.4966 -14.0030
   -13.0126 -12.9780 -12.5700 -12.1599 -11.8077 -11.6376 -11.5977 -11.3989
   -11.1498 -10.8300 -10.5857 -10.3600 -10.1773 -10.1224  -9.9746  -9.7395
    -9.4227  -9.2573  -9.2146  -8.9051  -8.7629  -8.6080  -8.3257  -8.2981
    -8.2620  -8.2161  -8.1492  -7.8737  -7.7353  -7.6129  -7.4451  -7.2999
    -7.1065  -5.9598  -5.1237  -5.1128  -4.8763  -4.6391  -4.4748  -4.3893
    -4.2732  -4.1350  -3.4236

          k = 0.3333 0.0000-0.3333 (164442 PWs)   bands (ev):

   -26.2846 -25.2948 -24.6174 -24.4230 -23.5624 -21.4813 -21.4488 -21.0831
   -20.5760 -18.6849 -17.5171 -16.5670 -16.4912 -14.9867 -14.4967 -14.0030
   -13.0126 -12.9780 -12.5699 -12.1599 -11.8078 -11.6377 -11.5976 -11.3989
   -11.1498 -10.8299 -10.5858 -10.3605 -10.1773 -10.1224  -9.9745  -9.7395
    -9.4215  -9.2572  -9.2153  -8.9051  -8.7624  -8.6078  -8.3254  -8.2989
    -8.2623  -8.2165  -8.1492  -7.8738  -7.7353  -7.6120  -7.4450  -7.3002
    -7.1065  -5.9597  -5.1238  -5.1129  -4.8763  -4.6388  -4.4768  -4.3886
    -4.2737  -4.1335  -3.4235

          k =-0.3333 0.0000-0.3333 (164442 PWs)   bands (ev):

   -26.2846 -25.2948 -24.6174 -24.4230 -23.5624 -21.4813 -21.4488 -21.0831
   -20.5760 -18.6849 -17.5171 -16.5670 -16.4912 -14.9867 -14.4967 -14.0030
   -13.0126 -12.9780 -12.5699 -12.1599 -11.8078 -11.6377 -11.5976 -11.3989
   -11.1498 -10.8299 -10.5858 -10.3605 -10.1773 -10.1224  -9.9745  -9.7395
    -9.4215  -9.2572  -9.2153  -8.9051  -8.7624  -8.6078  -8.3254  -8.2989
    -8.2623  -8.2165  -8.1492  -7.8738  -7.7353  -7.6120  -7.4450  -7.3002
    -7.1065  -5.9597  -5.1238  -5.1129  -4.8763  -4.6388  -4.4768  -4.3886
    -4.2737  -4.1335  -3.4235

          k = 0.3333-0.3333 0.0000 (164442 PWs)   bands (ev):

   -26.2846 -25.2948 -24.6174 -24.4230 -23.5624 -21.4813 -21.4488 -21.0831
   -20.5760 -18.6849 -17.5171 -16.5670 -16.4912 -14.9867 -14.4966 -14.0030
   -13.0126 -12.9780 -12.5700 -12.1599 -11.8077 -11.6377 -11.5976 -11.3989
   -11.1498 -10.8300 -10.5857 -10.3600 -10.1773 -10.1224  -9.9747  -9.7395
    -9.4227  -9.2572  -9.2147  -8.9051  -8.7629  -8.6079  -8.3258  -8.2982
    -8.2620  -8.2161  -8.1492  -7.8737  -7.7354  -7.6129  -7.4450  -7.2998
    -7.1064  -5.9597  -5.1229  -5.1138  -4.8763  -4.6388  -4.4753  -4.3893
    -4.2731  -4.1350  -3.4237

          k =-0.3333-0.3333 0.0000 (164442 PWs)   bands (ev):

   -26.2846 -25.2948 -24.6174 -24.4230 -23.5624 -21.4813 -21.4488 -21.0831
   -20.5760 -18.6849 -17.5171 -16.5670 -16.4912 -14.9867 -14.4966 -14.0030
   -13.0126 -12.9780 -12.5700 -12.1599 -11.8077 -11.6377 -11.5976 -11.3989
   -11.1498 -10.8300 -10.5857 -10.3600 -10.1773 -10.1224  -9.9747  -9.7395
    -9.4227  -9.2572  -9.2147  -8.9051  -8.7629  -8.6079  -8.3258  -8.2983
    -8.2620  -8.2161  -8.1492  -7.8737  -7.7354  -7.6129  -7.4450  -7.2998
    -7.1064  -5.9597  -5.1229  -5.1138  -4.8763  -4.6388  -4.4753  -4.3893
    -4.2731  -4.1350  -3.4237

          k =-0.3333-0.3333 0.3333 (164442 PWs)   bands (ev):

   -26.2846 -25.2948 -24.6174 -24.4230 -23.5624 -21.4813 -21.4488 -21.0831
   -20.5760 -18.6849 -17.5171 -16.5670 -16.4912 -14.9867 -14.4966 -14.0030
   -13.0126 -12.9780 -12.5700 -12.1599 -11.8077 -11.6376 -11.5977 -11.3989
   -11.1499 -10.8300 -10.5857 -10.3600 -10.1773 -10.1224  -9.9746  -9.7395
    -9.4227  -9.2572  -9.2147  -8.9051  -8.7629  -8.6080  -8.3257  -8.2981
    -8.2620  -8.2161  -8.1492  -7.8737  -7.7353  -7.6128  -7.4450  -7.2999
    -7.1065  -5.9597  -5.1238  -5.1129  -4.8763  -4.6389  -4.4751  -4.3894
    -4.2732  -4.1350  -3.4236

          k =-0.3333 0.3333-0.3333 (164442 PWs)   bands (ev):

   -26.2846 -25.2948 -24.6174 -24.4230 -23.5624 -21.4813 -21.4488 -21.0831
   -20.5760 -18.6849 -17.5171 -16.5670 -16.4912 -14.9867 -14.4966 -14.0030
   -13.0126 -12.9780 -12.5700 -12.1599 -11.8077 -11.6376 -11.5977 -11.3989
   -11.1499 -10.8300 -10.5857 -10.3600 -10.1773 -10.1224  -9.9746  -9.7395
    -9.4227  -9.2572  -9.2147  -8.9051  -8.7629  -8.6080  -8.3257  -8.2981
    -8.2620  -8.2161  -8.1492  -7.8737  -7.7353  -7.6128  -7.4450  -7.2999
    -7.1065  -5.9597  -5.1238  -5.1129  -4.8763  -4.6389  -4.4751  -4.3894
    -4.2732  -4.1350  -3.4235

          k = 0.3333-0.3333-0.3333 (164442 PWs)   bands (ev):

   -26.2846 -25.2948 -24.6174 -24.4230 -23.5624 -21.4813 -21.4488 -21.0831
   -20.5760 -18.6849 -17.5171 -16.5670 -16.4912 -14.9867 -14.4966 -14.0030
   -13.0126 -12.9780 -12.5700 -12.1599 -11.8077 -11.6376 -11.5977 -11.3989
   -11.1499 -10.8300 -10.5857 -10.3600 -10.1773 -10.1224  -9.9746  -9.7395
    -9.4227  -9.2572  -9.2147  -8.9051  -8.7629  -8.6080  -8.3257  -8.2981
    -8.2620  -8.2161  -8.1492  -7.8737  -7.7353  -7.6128  -7.4450  -7.2999
    -7.1065  -5.9597  -5.1238  -5.1129  -4.8763  -4.6389  -4.4751  -4.3894
    -4.2732  -4.1350  -3.4235

     highest occupied level (ev):    -3.4235

!    total energy              =    -544.01825224 Ry
     Harris-Foulkes estimate   =    -544.01825223 Ry
     estimated scf accuracy    <          3.3E-09 Ry

     total all-electron energy =     -2049.157118 Ry

     The total energy is the sum of the following terms:

     one-electron contribution =   -1151.50920045 Ry
     hartree contribution      =     599.36812353 Ry
     xc contribution           =    -125.05570162 Ry
     ewald contribution        =     275.18041599 Ry
     one-center paw contrib.   =    -142.00188969 Ry

     convergence has been achieved in  10 iterations

     Forces acting on atoms (Ry/au):


     negative rho (up, down):  1.615E-04 0.000E+00
     atom    1 type  2   force =    -0.00694463    0.00268721   -0.00776291
     atom    2 type  2   force =    -0.00716597    0.00320726    0.00527687
     atom    3 type  2   force =    -0.00314284   -0.01420904   -0.01108972
     atom    4 type  2   force =    -0.01121707   -0.00457051    0.01376146
     atom    5 type  2   force =     0.01401083   -0.00194712   -0.00132281
     atom    6 type  2   force =     0.00685411   -0.00434347    0.00439661
     atom    7 type  2   force =     0.00556302    0.04099046    0.01131449
     atom    8 type  2   force =     0.00307396    0.00411759   -0.01184051
     atom    9 type  2   force =    -0.00038824   -0.00880254   -0.02156101
     atom   10 type  2   force =    -0.00940794    0.01763513    0.01982907
     atom   11 type  2   force =     0.00358071    0.00337706   -0.02324761
     atom   12 type  2   force =    -0.00371733   -0.00920592   -0.01410298
     atom   13 type  2   force =    -0.00634283    0.00234581    0.00853856
     atom   14 type  2   force =    -0.00790182   -0.00359703    0.01111914
     atom   15 type  2   force =     0.00586555   -0.00893261    0.00332774
     atom   16 type  2   force =    -0.00698715    0.01934351   -0.01600827
     atom   17 type  2   force =    -0.04211201   -0.03836560   -0.03256511
     atom   18 type  2   force =    -0.00643100    0.00430377    0.00719465
     atom   19 type  2   force =     0.01462631   -0.00235739   -0.00747845
     atom   20 type  2   force =     0.01041674   -0.01990171    0.01291755
     atom   21 type  2   force =     0.00588589   -0.00257931   -0.00454128
     atom   22 type  2   force =     0.00303178    0.00620045   -0.00361567
     atom   23 type  2   force =    -0.00203857   -0.00426856   -0.00034814
     atom   24 type  2   force =    -0.00733211    0.01247808   -0.02108834
     atom   25 type  1   force =    -0.00028763   -0.00388645    0.00958982
     atom   26 type  1   force =     0.16841216   -0.06502134    0.09439619
     atom   27 type  1   force =     0.01223467   -0.00888932    0.01737304
     atom   28 type  1   force =    -0.02211552   -0.00262745    0.03489803
     atom   29 type  1   force =    -0.01237676   -0.05783778   -0.00992664
     atom   30 type  1   force =     0.01077380    0.00378012   -0.01530980
     atom   31 type  1   force =    -0.00040901   -0.01424571    0.02289145
     atom   32 type  1   force =    -0.04300256    0.04668456   -0.04726142
     atom   33 type  1   force =     0.02049456   -0.00784039    0.02039067
     atom   34 type  1   force =    -0.18420343   -0.03035569    0.01339036
     atom   35 type  1   force =    -0.00250277   -0.00296137   -0.00287920
     atom   36 type  3   force =    -0.00179346    0.01776162    0.00576339
     atom   37 type  3   force =     0.03466483    0.02465604    0.01429629
     atom   38 type  3   force =     0.07267608    0.00706080    0.07738325
     atom   39 type  3   force =    -0.01835184    0.00240089    0.00955406
     atom   40 type  4   force =    -0.14819146    0.07321159   -0.11237703
     atom   41 type  4   force =    -0.02705465   -0.02643422   -0.02169093
     atom   42 type  4   force =     0.01213950    0.01546436   -0.00753485
     atom   43 type  4   force =     0.00949894   -0.00350549    0.00260066
     atom   44 type  4   force =     0.16761521    0.03897971   -0.02665067

     Total force =     0.436182     Total SCF correction =     0.000070

     number of scf cycles    =   2
     number of bfgs steps    =   1

     energy   old            =    -544.0170288445 Ry
     energy   new            =    -544.0182522374 Ry

     CASE: energy  _new < energy  _old

     new trust radius        =       0.0805375678 bohr
     new conv_thr            =       0.0000000100 Ry


ATOMIC_POSITIONS (crystal)
H        0.746960038   0.864328469   0.728157309
H        0.689878814   0.901224719   0.605946267
H        0.828749094   0.723599937   0.648132218
H        0.840679587   0.736633277   0.445841286
H        0.654535250   0.632525371   0.727079742
H        0.718059945   0.558170965   0.609899995
H        0.539168783   0.563584976   0.567695071
H        0.753623169   0.295125350   0.405900172
H        0.568156944   0.266852914   0.394484134
H        0.673313609   0.161435541   0.176588675
H        0.494187973   0.319760771   0.181989162
H        0.602450820   0.424609836   0.205550978
H        0.487482514   0.436003669   0.401763246
H        0.376185384   0.393920978   0.308429390
H        0.726186298   0.407133421   0.327329681
H        0.372835240   0.650339800   0.157543426
H        0.334768523   0.506260636   0.156373944
H        0.160238404   0.419470835   0.779992067
H        0.355833198   0.322369106   0.780925765
H        0.253164535   0.486833975   0.609890290
H        0.385808361   0.209408763   0.615524055
H        0.260441181   0.155130206   0.678958630
H        0.250666126   0.244724152   0.558744131
H        0.184191247   0.297489423   0.842881145
C        0.743893726   0.738088340   0.611425550
C        0.756171129   0.754375830   0.487036390
C        0.670387554   0.634630502   0.634366075
C        0.612065361   0.281876483   0.312481208
C        0.610084541   0.172529593   0.249436263
C        0.542426649   0.365845585   0.245408692
C        0.459299262   0.433491569   0.314333790
C        0.453758820   0.552700590   0.274837901
C        0.291572484   0.330147174   0.714487630
C        0.322644220   0.433501773   0.649857178
C        0.298238037   0.229053986   0.636866968
N        0.695981458   0.837916323   0.663935400
N        0.724221688   0.321010770   0.329173182
N        0.379562077   0.570960292   0.186972918
N        0.180951867   0.337306071   0.765562273
O        0.678323147   0.786815955   0.426796134
O        0.568361710   0.640343290   0.577721462
O        0.545171142   0.097320687   0.270773323
O        0.510828870   0.628424801   0.314182051
O        0.420915219   0.463354296   0.635515831



     Writing output data file aiida.save
     NEW-OLD atomic charge density approx. for the potential

     negative rho (up, down):  1.506E-04 0.000E+00

     total cpu time spent up to now is     6942.4 secs

     per-process dynamical memory:   361.1 Mb

     Self-consistent Calculation

     iteration #  1     ecut=    90.00 Ry     beta=0.40
     Davidson diagonalization with overlap
     ethr =  1.00E-06,  avg # of iterations =  8.0

     negative rho (up, down):  1.530E-04 0.000E+00

     total cpu time spent up to now is     7568.6 secs

     total energy              =    -544.04286310 Ry
     Harris-Foulkes estimate   =    -544.01362584 Ry
     estimated scf accuracy    <       0.01257227 Ry

     iteration #  2     ecut=    90.00 Ry     beta=0.40
     Davidson diagonalization with overlap
     ethr =  1.07E-05,  avg # of iterations =  4.0

     negative rho (up, down):  1.561E-04 0.000E+00

     total cpu time spent up to now is     7788.7 secs

     total energy              =    -544.04307546 Ry
     Harris-Foulkes estimate   =    -544.04406789 Ry
     estimated scf accuracy    <       0.00202903 Ry

     iteration #  3     ecut=    90.00 Ry     beta=0.40
     Davidson diagonalization with overlap
     ethr =  1.72E-06,  avg # of iterations =  4.0

     negative rho (up, down):  1.586E-04 0.000E+00

     total cpu time spent up to now is     8031.7 secs

     total energy              =    -544.04319123 Ry
     Harris-Foulkes estimate   =    -544.04339191 Ry
     estimated scf accuracy    <       0.00047652 Ry

     iteration #  4     ecut=    90.00 Ry     beta=0.40
     Davidson diagonalization with overlap
     ethr =  4.04E-07,  avg # of iterations =  4.0

     negative rho (up, down):  1.604E-04 0.000E+00

     total cpu time spent up to now is     8256.6 secs

     total energy              =    -544.04322308 Ry
     Harris-Foulkes estimate   =    -544.04325788 Ry
     estimated scf accuracy    <       0.00007189 Ry

     iteration #  5     ecut=    90.00 Ry     beta=0.40
     Davidson diagonalization with overlap
     ethr =  6.09E-08,  avg # of iterations =  3.0

     negative rho (up, down):  1.611E-04 0.000E+00

     total cpu time spent up to now is     8507.0 secs

     total energy              =    -544.04323238 Ry
     Harris-Foulkes estimate   =    -544.04323518 Ry
     estimated scf accuracy    <       0.00000745 Ry

     iteration #  6     ecut=    90.00 Ry     beta=0.40
     Davidson diagonalization with overlap
     ethr =  6.32E-09,  avg # of iterations =  4.0

     negative rho (up, down):  1.614E-04 0.000E+00

     total cpu time spent up to now is     8788.2 secs

     total energy              =    -544.04323338 Ry
     Harris-Foulkes estimate   =    -544.04323402 Ry
     estimated scf accuracy    <       0.00000189 Ry

     iteration #  7     ecut=    90.00 Ry     beta=0.40
     Davidson diagonalization with overlap
     ethr =  1.61E-09,  avg # of iterations =  4.0

     negative rho (up, down):  1.616E-04 0.000E+00

     total cpu time spent up to now is     9019.1 secs

     total energy              =    -544.04323357 Ry
     Harris-Foulkes estimate   =    -544.04323365 Ry
     estimated scf accuracy    <       0.00000026 Ry

     iteration #  8     ecut=    90.00 Ry     beta=0.40
     Davidson diagonalization with overlap
     ethr =  2.21E-10,  avg # of iterations =  4.0

     negative rho (up, down):  1.617E-04 0.000E+00

     total cpu time spent up to now is     9276.1 secs

     total energy              =    -544.04323363 Ry
     Harris-Foulkes estimate   =    -544.04323362 Ry
     estimated scf accuracy    <       0.00000003 Ry

     iteration #  9     ecut=    90.00 Ry     beta=0.40
     Davidson diagonalization with overlap
     ethr =  2.94E-11,  avg # of iterations =  3.4

     negative rho (up, down):  1.619E-04 0.000E+00

     total cpu time spent up to now is     9544.4 secs

     End of self-consistent calculation

          k = 0.0000 0.0000 0.0000 (164415 PWs)   bands (ev):

   -25.2127 -24.7468 -24.3012 -24.0858 -23.4848 -21.5314 -21.4266 -21.0493
   -20.5722 -18.5657 -17.6364 -16.6072 -16.4622 -15.1718 -14.4055 -14.1555
   -13.1105 -12.9789 -12.4961 -12.0211 -11.8696 -11.5825 -11.5274 -11.3518
   -11.1518 -10.7572 -10.5388 -10.2966 -10.0357 -10.0235  -9.8770  -9.5346
    -9.3639  -9.0853  -9.0308  -8.7574  -8.7304  -8.5451  -8.2644  -8.2511
    -8.2187  -8.1686  -7.9691  -7.7598  -7.6366  -7.3902  -7.2797  -7.0870
    -7.0835  -5.9563  -5.2071  -5.0867  -4.8789  -4.7425  -4.4207  -4.3364
    -4.2419  -4.0730  -3.4800

          k = 0.0000 0.0000 0.3333 (164448 PWs)   bands (ev):

   -25.2127 -24.7468 -24.3012 -24.0858 -23.4848 -21.5314 -21.4266 -21.0493
   -20.5722 -18.5657 -17.6364 -16.6072 -16.4622 -15.1718 -14.4055 -14.1555
   -13.1105 -12.9789 -12.4961 -12.0211 -11.8695 -11.5824 -11.5275 -11.3518
   -11.1519 -10.7572 -10.5388 -10.2966 -10.0356 -10.0236  -9.8770  -9.5346
    -9.3639  -9.0853  -9.0309  -8.7574  -8.7304  -8.5452  -8.2645  -8.2511
    -8.2186  -8.1685  -7.9691  -7.7596  -7.6367  -7.3902  -7.2797  -7.0871
    -7.0835  -5.9562  -5.2071  -5.0867  -4.8789  -4.7425  -4.4206  -4.3364
    -4.2421  -4.0730  -3.4798

          k = 0.0000 0.3333 0.3333 (164442 PWs)   bands (ev):

   -25.2127 -24.7468 -24.3012 -24.0858 -23.4848 -21.5314 -21.4266 -21.0493
   -20.5722 -18.5657 -17.6364 -16.6072 -16.4623 -15.1718 -14.4055 -14.1555
   -13.1105 -12.9789 -12.4962 -12.0211 -11.8695 -11.5823 -11.5276 -11.3518
   -11.1519 -10.7573 -10.5387 -10.2960 -10.0356 -10.0236  -9.8771  -9.5347
    -9.3645  -9.0854  -9.0303  -8.7571  -8.7313  -8.5456  -8.2656  -8.2496
    -8.2179  -8.1684  -7.9691  -7.7595  -7.6360  -7.3905  -7.2819  -7.0907
    -7.0785  -5.9562  -5.2071  -5.0867  -4.8789  -4.7426  -4.4191  -4.3370
    -4.2417  -4.0743  -3.4799

          k = 0.3333 0.3333 0.3333 (164442 PWs)   bands (ev):

   -25.2127 -24.7468 -24.3012 -24.0858 -23.4848 -21.5314 -21.4266 -21.0493
   -20.5722 -18.5657 -17.6364 -16.6072 -16.4623 -15.1718 -14.4055 -14.1555
   -13.1105 -12.9789 -12.4962 -12.0211 -11.8695 -11.5823 -11.5276 -11.3518
   -11.1520 -10.7573 -10.5387 -10.2960 -10.0357 -10.0236  -9.8771  -9.5348
    -9.3645  -9.0853  -9.0304  -8.7571  -8.7313  -8.5456  -8.2656  -8.2496
    -8.2179  -8.1684  -7.9690  -7.7595  -7.6360  -7.3905  -7.2819  -7.0907
    -7.0785  -5.9561  -5.2073  -5.0867  -4.8789  -4.7424  -4.4193  -4.3371
    -4.2416  -4.0743  -3.4798

          k = 0.3333 0.0000 0.0000 (164448 PWs)   bands (ev):

   -25.2127 -24.7468 -24.3012 -24.0858 -23.4848 -21.5314 -21.4266 -21.0493
   -20.5722 -18.5657 -17.6364 -16.6072 -16.4622 -15.1718 -14.4055 -14.1555
   -13.1105 -12.9789 -12.4961 -12.0211 -11.8696 -11.5825 -11.5274 -11.3517
   -11.1519 -10.7572 -10.5388 -10.2966 -10.0358 -10.0235  -9.8771  -9.5347
    -9.3639  -9.0852  -9.0309  -8.7574  -8.7304  -8.5451  -8.2644  -8.2511
    -8.2187  -8.1686  -7.9691  -7.7598  -7.6365  -7.3902  -7.2797  -7.0870
    -7.0835  -5.9561  -5.2072  -5.0867  -4.8789  -4.7423  -4.4208  -4.3365
    -4.2419  -4.0729  -3.4799

          k = 0.0000 0.3333 0.0000 (164448 PWs)   bands (ev):

   -25.2127 -24.7468 -24.3012 -24.0858 -23.4848 -21.5314 -21.4266 -21.0493
   -20.5722 -18.5657 -17.6364 -16.6072 -16.4623 -15.1718 -14.4055 -14.1555
   -13.1105 -12.9789 -12.4962 -12.0212 -11.8695 -11.5824 -11.5276 -11.3518
   -11.1519 -10.7573 -10.5387 -10.2960 -10.0358 -10.0235  -9.8771  -9.5347
    -9.3645  -9.0854  -9.0303  -8.7571  -8.7313  -8.5455  -8.2655  -8.2496
    -8.2179  -8.1685  -7.9691  -7.7597  -7.6360  -7.3905  -7.2818  -7.0905
    -7.0786  -5.9563  -5.2070  -5.0867  -4.8789  -4.7425  -4.4192  -4.3370
    -4.2415  -4.0743  -3.4800

          k = 0.0000-0.3333 0.3333 (164442 PWs)   bands (ev):

   -25.2127 -24.7468 -24.3012 -24.0858 -23.4848 -21.5314 -21.4266 -21.0493
   -20.5722 -18.5657 -17.6364 -16.6072 -16.4623 -15.1718 -14.4055 -14.1555
   -13.1105 -12.9789 -12.4962 -12.0211 -11.8695 -11.5823 -11.5276 -11.3518
   -11.1519 -10.7573 -10.5387 -10.2960 -10.0356 -10.0236  -9.8771  -9.5347
    -9.3645  -9.0854  -9.0303  -8.7571  -8.7313  -8.5456  -8.2656  -8.2496
    -8.2179  -8.1684  -7.9691  -7.7595  -7.6360  -7.3905  -7.2819  -7.0907
    -7.0785  -5.9562  -5.2071  -5.0867  -4.8789  -4.7426  -4.4191  -4.3370
    -4.2416  -4.0743  -3.4799

          k = 0.3333 0.0000-0.3333 (164442 PWs)   bands (ev):

   -25.2127 -24.7468 -24.3012 -24.0858 -23.4848 -21.5314 -21.4266 -21.0493
   -20.5722 -18.5657 -17.6364 -16.6072 -16.4622 -15.1718 -14.4055 -14.1555
   -13.1105 -12.9789 -12.4961 -12.0211 -11.8695 -11.5824 -11.5275 -11.3517
   -11.1519 -10.7572 -10.5388 -10.2966 -10.0356 -10.0236  -9.8770  -9.5347
    -9.3639  -9.0852  -9.0309  -8.7574  -8.7304  -8.5452  -8.2645  -8.2511
    -8.2187  -8.1685  -7.9691  -7.7596  -7.6366  -7.3902  -7.2797  -7.0871
    -7.0835  -5.9561  -5.2073  -5.0867  -4.8789  -4.7424  -4.4207  -4.3365
    -4.2420  -4.0729  -3.4798

          k =-0.3333 0.0000-0.3333 (164442 PWs)   bands (ev):

   -25.2127 -24.7468 -24.3012 -24.0858 -23.4848 -21.5314 -21.4266 -21.0493
   -20.5722 -18.5657 -17.6364 -16.6072 -16.4622 -15.1718 -14.4055 -14.1555
   -13.1105 -12.9789 -12.4961 -12.0211 -11.8695 -11.5824 -11.5275 -11.3517
   -11.1519 -10.7572 -10.5388 -10.2966 -10.0356 -10.0236  -9.8770  -9.5347
    -9.3639  -9.0852  -9.0309  -8.7574  -8.7304  -8.5452  -8.2645  -8.2510
    -8.2187  -8.1685  -7.9691  -7.7596  -7.6366  -7.3902  -7.2797  -7.0871
    -7.0835  -5.9561  -5.2073  -5.0867  -4.8789  -4.7424  -4.4208  -4.3365
    -4.2420  -4.0729  -3.4798

          k = 0.3333-0.3333 0.0000 (164442 PWs)   bands (ev):

   -25.2127 -24.7468 -24.3012 -24.0858 -23.4848 -21.5314 -21.4266 -21.0493
   -20.5722 -18.5657 -17.6364 -16.6072 -16.4623 -15.1718 -14.4055 -14.1555
   -13.1105 -12.9789 -12.4962 -12.0212 -11.8695 -11.5824 -11.5275 -11.3518
   -11.1519 -10.7573 -10.5387 -10.2960 -10.0358 -10.0235  -9.8772  -9.5348
    -9.3645  -9.0853  -9.0304  -8.7571  -8.7313  -8.5455  -8.2655  -8.2497
    -8.2179  -8.1685  -7.9691  -7.7597  -7.6359  -7.3904  -7.2818  -7.0905
    -7.0786  -5.9561  -5.2072  -5.0867  -4.8789  -4.7424  -4.4193  -4.3370
    -4.2415  -4.0743  -3.4799

          k =-0.3333-0.3333 0.0000 (164442 PWs)   bands (ev):

   -25.2127 -24.7468 -24.3012 -24.0858 -23.4848 -21.5314 -21.4266 -21.0493
   -20.5722 -18.5657 -17.6364 -16.6072 -16.4623 -15.1718 -14.4055 -14.1555
   -13.1105 -12.9789 -12.4962 -12.0212 -11.8695 -11.5824 -11.5275 -11.3518
   -11.1519 -10.7573 -10.5387 -10.2960 -10.0358 -10.0235  -9.8772  -9.5348
    -9.3645  -9.0853  -9.0304  -8.7571  -8.7313  -8.5455  -8.2655  -8.2497
    -8.2179  -8.1685  -7.9691  -7.7597  -7.6359  -7.3904  -7.2818  -7.0905
    -7.0786  -5.9561  -5.2072  -5.0867  -4.8789  -4.7424  -4.4193  -4.3371
    -4.2415  -4.0743  -3.4800

          k =-0.3333-0.3333 0.3333 (164442 PWs)   bands (ev):

   -25.2127 -24.7468 -24.3012 -24.0858 -23.4848 -21.5314 -21.4266 -21.0493
   -20.5722 -18.5657 -17.6364 -16.6072 -16.4623 -15.1718 -14.4055 -14.1555
   -13.1105 -12.9789 -12.4962 -12.0211 -11.8695 -11.5823 -11.5276 -11.3518
   -11.1520 -10.7573 -10.5387 -10.2960 -10.0357 -10.0236  -9.8771  -9.5348
    -9.3645  -9.0853  -9.0304  -8.7571  -8.7313  -8.5456  -8.2656  -8.2496
    -8.2179  -8.1684  -7.9690  -7.7595  -7.6360  -7.3905  -7.2819  -7.0907
    -7.0785  -5.9561  -5.2073  -5.0867  -4.8789  -4.7424  -4.4193  -4.3371
    -4.2416  -4.0743  -3.4798

          k =-0.3333 0.3333-0.3333 (164442 PWs)   bands (ev):

   -25.2127 -24.7468 -24.3012 -24.0858 -23.4848 -21.5314 -21.4266 -21.0493
   -20.5722 -18.5657 -17.6364 -16.6072 -16.4623 -15.1718 -14.4055 -14.1555
   -13.1105 -12.9789 -12.4962 -12.0211 -11.8695 -11.5823 -11.5276 -11.3518
   -11.1520 -10.7573 -10.5387 -10.2960 -10.0357 -10.0236  -9.8771  -9.5348
    -9.3645  -9.0852  -9.0304  -8.7571  -8.7313  -8.5456  -8.2656  -8.2496
    -8.2179  -8.1684  -7.9691  -7.7595  -7.6360  -7.3905  -7.2819  -7.0907
    -7.0785  -5.9561  -5.2073  -5.0867  -4.8789  -4.7424  -4.4193  -4.3371
    -4.2416  -4.0743  -3.4798

          k = 0.3333-0.3333-0.3333 (164442 PWs)   bands (ev):

   -25.2127 -24.7468 -24.3012 -24.0858 -23.4848 -21.5314 -21.4266 -21.0493
   -20.5722 -18.5657 -17.6364 -16.6072 -16.4623 -15.1718 -14.4055 -14.1555
   -13.1105 -12.9789 -12.4962 -12.0211 -11.8695 -11.5823 -11.5276 -11.3518
   -11.1520 -10.7573 -10.5387 -10.2960 -10.0357 -10.0236  -9.8771  -9.5348
    -9.3645  -9.0852  -9.0304  -8.7571  -8.7313  -8.5456  -8.2656  -8.2496
    -8.2179  -8.1684  -7.9691  -7.7595  -7.6360  -7.3904  -7.2819  -7.0907
    -7.0785  -5.9561  -5.2073  -5.0867  -4.8789  -4.7424  -4.4193  -4.3371
    -4.2417  -4.0743  -3.4798

     highest occupied level (ev):    -3.4798

!    total energy              =    -544.04323364 Ry
     Harris-Foulkes estimate   =    -544.04323363 Ry
     estimated scf accuracy    <          5.8E-09 Ry

     total all-electron energy =     -2049.182099 Ry

     The total energy is the sum of the following terms:

     one-electron contribution =   -1145.58663624 Ry
     hartree contribution      =     596.60139668 Ry
     xc contribution           =    -124.77963985 Ry
     ewald contribution        =     271.72702765 Ry
     one-center paw contrib.   =    -142.00538188 Ry

     convergence has been achieved in   9 iterations

     Forces acting on atoms (Ry/au):


     negative rho (up, down):  1.619E-04 0.000E+00
     atom    1 type  2   force =    -0.00666895    0.00204488   -0.00814287
     atom    2 type  2   force =    -0.00684364   -0.00056831    0.00577687
     atom    3 type  2   force =    -0.00825117   -0.01273087   -0.00775284
     atom    4 type  2   force =    -0.01135593   -0.00511988    0.01442359
     atom    5 type  2   force =     0.01271129   -0.00123051   -0.00623715
     atom    6 type  2   force =     0.00297396    0.00026029    0.00483548
     atom    7 type  2   force =    -0.00174851    0.02509605    0.00883018
     atom    8 type  2   force =     0.00490344    0.00429284   -0.00947943
     atom    9 type  2   force =     0.00027893   -0.00566601   -0.01591379
     atom   10 type  2   force =    -0.01452923    0.01539645    0.02458931
     atom   11 type  2   force =     0.00549715    0.00401003   -0.01833526
     atom   12 type  2   force =    -0.00456965   -0.00880006   -0.01192616
     atom   13 type  2   force =    -0.00514241    0.00149832    0.00990583
     atom   14 type  2   force =    -0.00462245   -0.00287584    0.01134673
     atom   15 type  2   force =     0.00570851   -0.00479292    0.00358673
     atom   16 type  2   force =    -0.00404365    0.00331578   -0.00862106
     atom   17 type  2   force =    -0.01355620   -0.00158776   -0.01151712
     atom   18 type  2   force =    -0.00392256   -0.00044329    0.00595991
     atom   19 type  2   force =     0.01288090   -0.00192889   -0.00557564
     atom   20 type  2   force =     0.00927434   -0.02067059    0.01355843
     atom   21 type  2   force =     0.00121493   -0.00040854   -0.00305572
     atom   22 type  2   force =     0.00408102    0.00856161   -0.00401712
     atom   23 type  2   force =     0.00045972   -0.00347924    0.00366558
     atom   24 type  2   force =    -0.00900652    0.01151824   -0.02032275
     atom   25 type  1   force =     0.00879214   -0.00098520    0.01268825
     atom   26 type  1   force =    -0.03821616    0.02298546   -0.06495722
     atom   27 type  1   force =     0.00495387   -0.01373675    0.01474207
     atom   28 type  1   force =    -0.02693988   -0.00933957    0.02437529
     atom   29 type  1   force =     0.01687326   -0.02748056   -0.02300817
     atom   30 type  1   force =     0.00814703    0.00385583   -0.01028463
     atom   31 type  1   force =    -0.00147504   -0.00310105    0.01003349
     atom   32 type  1   force =    -0.02164136    0.03238275   -0.02531383
     atom   33 type  1   force =     0.00954418   -0.00237370    0.01772329
     atom   34 type  1   force =     0.04505806    0.03923607   -0.02262201
     atom   35 type  1   force =    -0.00128527   -0.01129913   -0.00770663
     atom   36 type  3   force =     0.00015339    0.01644199    0.00321029
     atom   37 type  3   force =     0.02771238    0.01686102    0.01189483
     atom   38 type  3   force =     0.03138660   -0.00656657    0.03771820
     atom   39 type  3   force =    -0.01381563    0.00204490    0.01392584
     atom   40 type  4   force =     0.05536460   -0.01082389    0.04218720
     atom   41 type  4   force =    -0.01047933   -0.01225201   -0.01168118
     atom   42 type  4   force =    -0.00626751   -0.00316549    0.00044659
     atom   43 type  4   force =    -0.00069996   -0.01105187   -0.00413161
     atom   44 type  4   force =    -0.05288868   -0.02732401    0.00517824

     Total force =     0.191849     Total SCF correction =     0.000084

     number of scf cycles    =   3
     number of bfgs steps    =   2

     energy   old            =    -544.0182522374 Ry
     energy   new            =    -544.0432336440 Ry

     CASE: energy  _new < energy  _old

     new trust radius        =       0.0617310970 bohr
     new conv_thr            =       0.0000000100 Ry


ATOMIC_POSITIONS (crystal)
H        0.746649465   0.864417600   0.727782673
H        0.689573053   0.901214139   0.606211420
H        0.828401058   0.723024892   0.647751945
H        0.840140884   0.736415261   0.446497550
H        0.655114017   0.632465508   0.726815915
H        0.718211492   0.558161916   0.610113424
H        0.539155639   0.564859030   0.568111769
H        0.753821513   0.295319569   0.405441098
H        0.568178256   0.266586264   0.393714417
H        0.672673640   0.162143727   0.177685152
H        0.494421059   0.319934914   0.181141468
H        0.602242262   0.424206713   0.205009718
H        0.487244049   0.436071427   0.402191518
H        0.375960825   0.393793248   0.308933244
H        0.726441144   0.406868070   0.327486332
H        0.372628455   0.650606833   0.157098810
H        0.333939626   0.505904023   0.155694985
H        0.160050105   0.419475054   0.780262017
H        0.356407898   0.322278009   0.780659609
H        0.253615689   0.485892514   0.610510298
H        0.385891644   0.209377653   0.615379380
H        0.260621928   0.155506248   0.678776453
H        0.250674617   0.244563374   0.558888169
H        0.183800133   0.298022126   0.841942285
C        0.744232728   0.738022804   0.611983865
C        0.756104109   0.754717510   0.485331301
C        0.670683986   0.634040567   0.635076918
C        0.610835067   0.281495651   0.313683441
C        0.610644835   0.171030229   0.248449707
C        0.542822488   0.366030488   0.244903452
C        0.459245912   0.433264708   0.314886207
C        0.452584744   0.554289827   0.273469363
C        0.292100676   0.329997862   0.715310940
C        0.322846481   0.434761632   0.649087524
C        0.298162262   0.228589830   0.636549233
N        0.695982171   0.838679393   0.664103106
N        0.725543138   0.321845787   0.329742360
N        0.381351707   0.570771120   0.189042408
N        0.180299424   0.337398513   0.766185236
O        0.679218986   0.786980622   0.427492135
O        0.567743152   0.639650402   0.577112357
O        0.545049342   0.097357917   0.270736837
O        0.510851556   0.627958453   0.314036080
O        0.420262783   0.462639576   0.635508879



     Writing output data file aiida.save
     NEW-OLD atomic charge density approx. for the potential

     negative rho (up, down):  1.625E-04 0.000E+00

     total cpu time spent up to now is     9641.4 secs

     per-process dynamical memory:   361.1 Mb

     Self-consistent Calculation

     iteration #  1     ecut=    90.00 Ry     beta=0.40
     Davidson diagonalization with overlap
     ethr =  1.00E-06,  avg # of iterations =  9.0

     negative rho (up, down):  1.645E-04 0.000E+00

     total cpu time spent up to now is    10341.4 secs

     total energy              =    -544.04919008 Ry
     Harris-Foulkes estimate   =    -544.05842968 Ry
     estimated scf accuracy    <       0.00753100 Ry

     iteration #  2     ecut=    90.00 Ry     beta=0.40
     Davidson diagonalization with overlap
     ethr =  6.38E-06,  avg # of iterations =  5.0

     negative rho (up, down):  1.645E-04 0.000E+00

     total cpu time spent up to now is    10563.3 secs

     total energy              =    -544.04980959 Ry
     Harris-Foulkes estimate   =    -544.05031272 Ry
     estimated scf accuracy    <       0.00133116 Ry

     iteration #  3     ecut=    90.00 Ry     beta=0.40
     Davidson diagonalization with overlap
     ethr =  1.13E-06,  avg # of iterations =  5.0

     negative rho (up, down):  1.643E-04 0.000E+00

     total cpu time spent up to now is    10805.2 secs

     total energy              =    -544.04995950 Ry
     Harris-Foulkes estimate   =    -544.05007972 Ry
     estimated scf accuracy    <       0.00037405 Ry

     iteration #  4     ecut=    90.00 Ry     beta=0.40
     Davidson diagonalization with overlap
     ethr =  3.17E-07,  avg # of iterations =  4.2

     negative rho (up, down):  1.637E-04 0.000E+00

     total cpu time spent up to now is    11051.4 secs

     total energy              =    -544.05001435 Ry
     Harris-Foulkes estimate   =    -544.05002629 Ry
     estimated scf accuracy    <       0.00005652 Ry

     iteration #  5     ecut=    90.00 Ry     beta=0.40
     Davidson diagonalization with overlap
     ethr =  4.79E-08,  avg # of iterations =  3.0

     negative rho (up, down):  1.632E-04 0.000E+00

     total cpu time spent up to now is    11294.6 secs

     total energy              =    -544.05002193 Ry
     Harris-Foulkes estimate   =    -544.05002217 Ry
     estimated scf accuracy    <       0.00000817 Ry

     iteration #  6     ecut=    90.00 Ry     beta=0.40
     Davidson diagonalization with overlap
     ethr =  6.92E-09,  avg # of iterations =  2.9

     negative rho (up, down):  1.630E-04 0.000E+00

     total cpu time spent up to now is    11548.1 secs

     total energy              =    -544.05002319 Ry
     Harris-Foulkes estimate   =    -544.05002327 Ry
     estimated scf accuracy    <       0.00000121 Ry

     iteration #  7     ecut=    90.00 Ry     beta=0.40
     Davidson diagonalization with overlap
     ethr =  1.03E-09,  avg # of iterations =  3.9

     negative rho (up, down):  1.628E-04 0.000E+00

     total cpu time spent up to now is    11785.8 secs

     total energy              =    -544.05002334 Ry
     Harris-Foulkes estimate   =    -544.05002334 Ry
     estimated scf accuracy    <       0.00000023 Ry

     iteration #  8     ecut=    90.00 Ry     beta=0.40
     Davidson diagonalization with overlap
     ethr =  1.95E-10,  avg # of iterations =  3.7

     negative rho (up, down):  1.628E-04 0.000E+00

     total cpu time spent up to now is    12087.3 secs

     total energy              =    -544.05002338 Ry
     Harris-Foulkes estimate   =    -544.05002340 Ry
     estimated scf accuracy    <       0.00000004 Ry

     iteration #  9     ecut=    90.00 Ry     beta=0.40
     Davidson diagonalization with overlap
     ethr =  3.80E-11,  avg # of iterations =  3.0

     negative rho (up, down):  1.629E-04 0.000E+00

     total cpu time spent up to now is    12360.8 secs

     End of self-consistent calculation

          k = 0.0000 0.0000 0.0000 (164415 PWs)   bands (ev):

   -25.4278 -24.8217 -24.4302 -24.3580 -23.4442 -21.4305 -21.3111 -21.1878
   -20.5188 -18.4166 -17.5476 -16.5741 -16.2987 -15.0810 -14.3047 -14.1243
   -13.2096 -13.1537 -12.6497 -11.9804 -11.9102 -11.5484 -11.3967 -11.3251
   -11.1154 -10.6679 -10.5306 -10.1038 -10.0196  -9.9998  -9.8716  -9.5775
    -9.3337  -9.1036  -9.0576  -8.8007  -8.7479  -8.5402  -8.3152  -8.2524
    -8.1875  -8.0642  -7.9903  -7.7731  -7.7201  -7.3694  -7.3069  -7.2469
    -7.0892  -5.9631  -5.1823  -5.1241  -4.8791  -4.7164  -4.3915  -4.3435
    -4.2007  -3.9899  -3.4697

          k = 0.0000 0.0000 0.3333 (164448 PWs)   bands (ev):

   -25.4278 -24.8217 -24.4302 -24.3580 -23.4442 -21.4305 -21.3111 -21.1878
   -20.5188 -18.4166 -17.5476 -16.5741 -16.2987 -15.0810 -14.3047 -14.1243
   -13.2096 -13.1537 -12.6497 -11.9804 -11.9102 -11.5483 -11.3967 -11.3251
   -11.1155 -10.6678 -10.5306 -10.1038 -10.0195  -9.9998  -9.8716  -9.5775
    -9.3337  -9.1036  -9.0576  -8.8008  -8.7479  -8.5402  -8.3152  -8.2524
    -8.1875  -8.0640  -7.9903  -7.7728  -7.7203  -7.3695  -7.3069  -7.2469
    -7.0893  -5.9631  -5.1823  -5.1240  -4.8791  -4.7164  -4.3915  -4.3435
    -4.2009  -3.9899  -3.4696

          k = 0.0000 0.3333 0.3333 (164442 PWs)   bands (ev):

   -25.4278 -24.8217 -24.4302 -24.3580 -23.4442 -21.4305 -21.3111 -21.1878
   -20.5188 -18.4166 -17.5476 -16.5741 -16.2988 -15.0810 -14.3046 -14.1243
   -13.2096 -13.1537 -12.6497 -11.9804 -11.9102 -11.5483 -11.3967 -11.3251
   -11.1156 -10.6680 -10.5304 -10.1031 -10.0196  -9.9999  -9.8717  -9.5775
    -9.3344  -9.1038  -9.0573  -8.8019  -8.7472  -8.5404  -8.3148  -8.2526
    -8.1873  -8.0636  -7.9902  -7.7726  -7.7196  -7.3694  -7.3125  -7.2427
    -7.0891  -5.9631  -5.1823  -5.1240  -4.8791  -4.7165  -4.3904  -4.3439
    -4.1997  -3.9918  -3.4697

          k = 0.3333 0.3333 0.3333 (164442 PWs)   bands (ev):

   -25.4278 -24.8217 -24.4302 -24.3580 -23.4442 -21.4305 -21.3111 -21.1878
   -20.5188 -18.4166 -17.5476 -16.5741 -16.2988 -15.0810 -14.3046 -14.1243
   -13.2096 -13.1537 -12.6497 -11.9804 -11.9102 -11.5482 -11.3967 -11.3251
   -11.1156 -10.6680 -10.5304 -10.1031 -10.0196  -9.9999  -9.8717  -9.5776
    -9.3344  -9.1036  -9.0574  -8.8019  -8.7472  -8.5404  -8.3148  -8.2526
    -8.1873  -8.0636  -7.9902  -7.7727  -7.7195  -7.3694  -7.3125  -7.2427
    -7.0891  -5.9629  -5.1825  -5.1240  -4.8791  -4.7163  -4.3906  -4.3439
    -4.1997  -3.9918  -3.4696

          k = 0.3333 0.0000 0.0000 (164448 PWs)   bands (ev):

   -25.4278 -24.8217 -24.4302 -24.3580 -23.4442 -21.4305 -21.3111 -21.1878
   -20.5188 -18.4166 -17.5476 -16.5741 -16.2987 -15.0810 -14.3047 -14.1243
   -13.2096 -13.1537 -12.6497 -11.9804 -11.9102 -11.5483 -11.3966 -11.3251
   -11.1155 -10.6678 -10.5306 -10.1038 -10.0196  -9.9998  -9.8716  -9.5776
    -9.3337  -9.1035  -9.0577  -8.8007  -8.7479  -8.5402  -8.3151  -8.2524
    -8.1876  -8.0642  -7.9902  -7.7731  -7.7200  -7.3694  -7.3069  -7.2469
    -7.0892  -5.9630  -5.1825  -5.1241  -4.8791  -4.7162  -4.3918  -4.3435
    -4.2007  -3.9899  -3.4697

          k = 0.0000 0.3333 0.0000 (164448 PWs)   bands (ev):

   -25.4278 -24.8217 -24.4302 -24.3580 -23.4442 -21.4305 -21.3111 -21.1878
   -20.5188 -18.4166 -17.5476 -16.5741 -16.2988 -15.0810 -14.3046 -14.1243
   -13.2096 -13.1537 -12.6497 -11.9805 -11.9102 -11.5483 -11.3967 -11.3251
   -11.1155 -10.6680 -10.5304 -10.1031 -10.0197  -9.9998  -9.8717  -9.5776
    -9.3344  -9.1038  -9.0573  -8.8019  -8.7472  -8.5403  -8.3148  -8.2526
    -8.1874  -8.0637  -7.9902  -7.7728  -7.7195  -7.3693  -7.3125  -7.2426
    -7.0890  -5.9631  -5.1823  -5.1241  -4.8791  -4.7165  -4.3904  -4.3440
    -4.1996  -3.9918  -3.4698

          k = 0.0000-0.3333 0.3333 (164442 PWs)   bands (ev):

   -25.4278 -24.8217 -24.4302 -24.3580 -23.4442 -21.4305 -21.3111 -21.1878
   -20.5188 -18.4166 -17.5476 -16.5741 -16.2988 -15.0810 -14.3046 -14.1243
   -13.2096 -13.1537 -12.6497 -11.9804 -11.9102 -11.5483 -11.3967 -11.3251
   -11.1156 -10.6680 -10.5304 -10.1031 -10.0196  -9.9999  -9.8717  -9.5775
    -9.3344  -9.1038  -9.0573  -8.8019  -8.7472  -8.5404  -8.3148  -8.2526
    -8.1873  -8.0636  -7.9902  -7.7726  -7.7196  -7.3694  -7.3125  -7.2427
    -7.0891  -5.9631  -5.1823  -5.1240  -4.8791  -4.7165  -4.3904  -4.3440
    -4.1997  -3.9918  -3.4697

          k = 0.3333 0.0000-0.3333 (164442 PWs)   bands (ev):

   -25.4278 -24.8217 -24.4302 -24.3580 -23.4442 -21.4305 -21.3111 -21.1878
   -20.5188 -18.4166 -17.5476 -16.5741 -16.2987 -15.0810 -14.3047 -14.1243
   -13.2096 -13.1537 -12.6497 -11.9804 -11.9102 -11.5483 -11.3967 -11.3251
   -11.1155 -10.6678 -10.5306 -10.1038 -10.0195  -9.9998  -9.8716  -9.5776
    -9.3337  -9.1035  -9.0577  -8.8008  -8.7479  -8.5402  -8.3151  -8.2524
[...]

     negative rho (up, down):  1.773E-04 0.000E+00

     total cpu time spent up to now is   121834.6 secs

     total energy              =    -544.13644356 Ry
     Harris-Foulkes estimate   =    -544.13646727 Ry
     estimated scf accuracy    <       0.00011063 Ry

     iteration #  3     ecut=    90.00 Ry     beta=0.40
     Davidson diagonalization with overlap
     ethr =  9.38E-08,  avg # of iterations =  3.0

     negative rho (up, down):  1.772E-04 0.000E+00

     total cpu time spent up to now is   122115.0 secs

     total energy              =    -544.13645864 Ry
     Harris-Foulkes estimate   =    -544.13646140 Ry
     estimated scf accuracy    <       0.00001161 Ry

     iteration #  4     ecut=    90.00 Ry     beta=0.40
     Davidson diagonalization with overlap
     ethr =  9.84E-09,  avg # of iterations =  3.0

     negative rho (up, down):  1.771E-04 0.000E+00

     total cpu time spent up to now is   122412.7 secs

     total energy              =    -544.13646111 Ry
     Harris-Foulkes estimate   =    -544.13646112 Ry
     estimated scf accuracy    <       0.00000219 Ry

     iteration #  5     ecut=    90.00 Ry     beta=0.40
     Davidson diagonalization with overlap
     ethr =  1.85E-09,  avg # of iterations =  2.0

     negative rho (up, down):  1.772E-04 0.000E+00

     total cpu time spent up to now is   122647.6 secs

     total energy              =    -544.13646121 Ry
     Harris-Foulkes estimate   =    -544.13646128 Ry
     estimated scf accuracy    <       0.00000032 Ry

     iteration #  6     ecut=    90.00 Ry     beta=0.40
     Davidson diagonalization with overlap
     ethr =  2.69E-10,  avg # of iterations =  3.0

     negative rho (up, down):  1.772E-04 0.000E+00

     total cpu time spent up to now is   122990.4 secs

     total energy              =    -544.13646129 Ry
     Harris-Foulkes estimate   =    -544.13646133 Ry
     estimated scf accuracy    <       0.00000011 Ry

     iteration #  7     ecut=    90.00 Ry     beta=0.40
     Davidson diagonalization with overlap
     ethr =  9.27E-11,  avg # of iterations =  3.0

     negative rho (up, down):  1.773E-04 0.000E+00

     total cpu time spent up to now is   123277.4 secs

     End of self-consistent calculation

          k = 0.0000 0.0000 0.0000 (164415 PWs)   bands (ev):

   -25.6929 -24.7455 -24.5435 -24.4278 -23.7001 -21.6762 -21.2431 -21.1456
   -20.5467 -18.3380 -17.8590 -16.8731 -16.4022 -15.4720 -14.3939 -14.0445
   -13.2008 -13.1719 -12.5521 -12.3692 -12.0010 -11.8350 -11.5122 -11.3539
   -11.0150 -10.6885 -10.6303 -10.3695 -10.2619 -10.0581  -9.8509  -9.7842
    -9.6118  -9.3315  -9.2213  -8.8670  -8.6550  -8.6156  -8.5206  -8.3817
    -8.3793  -8.3004  -8.1950  -8.1602  -7.9483  -7.3788  -7.1991  -7.1235
    -7.0566  -6.3232  -5.5100  -5.2178  -4.9376  -4.7515  -4.6904  -4.5157
    -4.4602  -4.2100  -3.7636

          k = 0.0000 0.0000 0.3333 (164448 PWs)   bands (ev):

   -25.6929 -24.7455 -24.5435 -24.4278 -23.7001 -21.6762 -21.2431 -21.1456
   -20.5467 -18.3380 -17.8590 -16.8731 -16.4022 -15.4720 -14.3939 -14.0445
   -13.2008 -13.1719 -12.5521 -12.3692 -12.0010 -11.8350 -11.5122 -11.3539
   -11.0150 -10.6885 -10.6303 -10.3694 -10.2619 -10.0581  -9.8509  -9.7842
    -9.6118  -9.3315  -9.2213  -8.8670  -8.6551  -8.6155  -8.5206  -8.3818
    -8.3793  -8.3004  -8.1951  -8.1602  -7.9480  -7.3789  -7.1992  -7.1235
    -7.0566  -6.3231  -5.5100  -5.2177  -4.9375  -4.7516  -4.6904  -4.5156
    -4.4602  -4.2100  -3.7637

          k = 0.0000 0.3333 0.3333 (164442 PWs)   bands (ev):

   -25.6929 -24.7455 -24.5435 -24.4278 -23.7001 -21.6762 -21.2431 -21.1456
   -20.5467 -18.3380 -17.8590 -16.8731 -16.4022 -15.4720 -14.3939 -14.0445
   -13.2008 -13.1719 -12.5522 -12.3692 -12.0011 -11.8351 -11.5122 -11.3539
   -11.0150 -10.6886 -10.6304 -10.3694 -10.2616 -10.0580  -9.8506  -9.7845
    -9.6115  -9.3317  -9.2214  -8.8681  -8.6541  -8.6157  -8.5207  -8.3841
    -8.3768  -8.3003  -8.1954  -8.1599  -7.9480  -7.3791  -7.1988  -7.1241
    -7.0563  -6.3232  -5.5100  -5.2178  -4.9375  -4.7516  -4.6903  -4.5156
    -4.4584  -4.2117  -3.7636

          k = 0.3333 0.3333 0.3333 (164442 PWs)   bands (ev):

   -25.6929 -24.7455 -24.5435 -24.4278 -23.7001 -21.6762 -21.2431 -21.1456
   -20.5467 -18.3380 -17.8590 -16.8731 -16.4022 -15.4720 -14.3939 -14.0445
   -13.2008 -13.1719 -12.5522 -12.3692 -12.0011 -11.8351 -11.5122 -11.3539
   -11.0150 -10.6886 -10.6304 -10.3694 -10.2616 -10.0580  -9.8506  -9.7846
    -9.6115  -9.3317  -9.2214  -8.8681  -8.6541  -8.6157  -8.5207  -8.3841
    -8.3768  -8.3003  -8.1954  -8.1599  -7.9480  -7.3791  -7.1988  -7.1241
    -7.0563  -6.3231  -5.5096  -5.2178  -4.9381  -4.7516  -4.6904  -4.5156
    -4.4585  -4.2116  -3.7636

          k = 0.3333 0.0000 0.0000 (164448 PWs)   bands (ev):

   -25.6929 -24.7455 -24.5435 -24.4278 -23.7001 -21.6762 -21.2431 -21.1456
   -20.5467 -18.3380 -17.8590 -16.8731 -16.4022 -15.4720 -14.3939 -14.0445
   -13.2008 -13.1719 -12.5521 -12.3692 -12.0010 -11.8350 -11.5122 -11.3539
   -11.0150 -10.6885 -10.6303 -10.3695 -10.2619 -10.0581  -9.8509  -9.7842
    -9.6118  -9.3315  -9.2212  -8.8670  -8.6550  -8.6156  -8.5206  -8.3817
    -8.3793  -8.3004  -8.1950  -8.1602  -7.9483  -7.3788  -7.1990  -7.1235
    -7.0566  -6.3231  -5.5096  -5.2178  -4.9381  -4.7515  -4.6904  -4.5157
    -4.4602  -4.2099  -3.7636

          k = 0.0000 0.3333 0.0000 (164448 PWs)   bands (ev):

   -25.6929 -24.7455 -24.5435 -24.4278 -23.7001 -21.6762 -21.2431 -21.1456
   -20.5467 -18.3380 -17.8590 -16.8731 -16.4022 -15.4720 -14.3939 -14.0445
   -13.2008 -13.1719 -12.5522 -12.3692 -12.0011 -11.8350 -11.5122 -11.3539
   -11.0150 -10.6886 -10.6304 -10.3694 -10.2616 -10.0580  -9.8506  -9.7845
    -9.6114  -9.3317  -9.2214  -8.8681  -8.6540  -8.6158  -8.5207  -8.3843
    -8.3765  -8.3003  -8.1954  -8.1599  -7.9483  -7.3790  -7.1987  -7.1241
    -7.0563  -6.3232  -5.5100  -5.2178  -4.9375  -4.7515  -4.6904  -4.5156
    -4.4585  -4.2117  -3.7636

          k = 0.0000-0.3333 0.3333 (164442 PWs)   bands (ev):

   -25.6929 -24.7455 -24.5435 -24.4278 -23.7001 -21.6762 -21.2431 -21.1456
   -20.5467 -18.3380 -17.8590 -16.8731 -16.4022 -15.4720 -14.3939 -14.0445
   -13.2008 -13.1719 -12.5522 -12.3692 -12.0011 -11.8351 -11.5122 -11.3539
   -11.0150 -10.6886 -10.6304 -10.3694 -10.2616 -10.0580  -9.8506  -9.7845
    -9.6115  -9.3317  -9.2214  -8.8681  -8.6541  -8.6157  -8.5207  -8.3843
    -8.3767  -8.3003  -8.1954  -8.1599  -7.9480  -7.3791  -7.1989  -7.1241
    -7.0563  -6.3232  -5.5100  -5.2178  -4.9375  -4.7516  -4.6903  -4.5156
    -4.4584  -4.2117  -3.7636

          k = 0.3333 0.0000-0.3333 (164442 PWs)   bands (ev):

   -25.6929 -24.7455 -24.5435 -24.4278 -23.7001 -21.6762 -21.2431 -21.1456
   -20.5467 -18.3380 -17.8590 -16.8731 -16.4022 -15.4720 -14.3939 -14.0445
   -13.2008 -13.1719 -12.5521 -12.3692 -12.0010 -11.8350 -11.5122 -11.3539
   -11.0150 -10.6885 -10.6304 -10.3695 -10.2619 -10.0581  -9.8509  -9.7842
    -9.6118  -9.3315  -9.2213  -8.8670  -8.6551  -8.6155  -8.5206  -8.3818
    -8.3793  -8.3004  -8.1951  -8.1602  -7.9480  -7.3789  -7.1992  -7.1235
    -7.0566  -6.3231  -5.5096  -5.2177  -4.9381  -4.7516  -4.6905  -4.5157
    -4.4602  -4.2099  -3.7636

          k =-0.3333 0.0000-0.3333 (164442 PWs)   bands (ev):

   -25.6929 -24.7455 -24.5435 -24.4278 -23.7001 -21.6762 -21.2431 -21.1456
   -20.5467 -18.3380 -17.8590 -16.8731 -16.4022 -15.4720 -14.3939 -14.0445
   -13.2008 -13.1719 -12.5521 -12.3692 -12.0010 -11.8350 -11.5122 -11.3539
   -11.0150 -10.6885 -10.6304 -10.3695 -10.2619 -10.0581  -9.8509  -9.7842
    -9.6118  -9.3315  -9.2213  -8.8670  -8.6551  -8.6155  -8.5205  -8.3818
    -8.3793  -8.3004  -8.1951  -8.1602  -7.9480  -7.3789  -7.1992  -7.1235
    -7.0566  -6.3231  -5.5096  -5.2177  -4.9381  -4.7516  -4.6905  -4.5157
    -4.4602  -4.2099  -3.7636

          k = 0.3333-0.3333 0.0000 (164442 PWs)   bands (ev):

   -25.6929 -24.7455 -24.5435 -24.4278 -23.7001 -21.6762 -21.2431 -21.1456
   -20.5467 -18.3380 -17.8590 -16.8731 -16.4022 -15.4720 -14.3939 -14.0445
   -13.2008 -13.1719 -12.5521 -12.3692 -12.0011 -11.8351 -11.5121 -11.3539
   -11.0150 -10.6886 -10.6304 -10.3694 -10.2616 -10.0580  -9.8506  -9.7846
    -9.6114  -9.3318  -9.2213  -8.8681  -8.6540  -8.6158  -8.5207  -8.3843
    -8.3765  -8.3003  -8.1954  -8.1599  -7.9483  -7.3790  -7.1987  -7.1241
    -7.0563  -6.3232  -5.5096  -5.2178  -4.9381  -4.7515  -4.6904  -4.5156
    -4.4585  -4.2117  -3.7635

          k =-0.3333-0.3333 0.0000 (164442 PWs)   bands (ev):

   -25.6929 -24.7455 -24.5435 -24.4278 -23.7001 -21.6762 -21.2431 -21.1456
   -20.5467 -18.3380 -17.8590 -16.8731 -16.4022 -15.4720 -14.3939 -14.0445
   -13.2008 -13.1719 -12.5521 -12.3692 -12.0011 -11.8351 -11.5122 -11.3539
   -11.0150 -10.6886 -10.6304 -10.3694 -10.2616 -10.0580  -9.8506  -9.7846
    -9.6114  -9.3317  -9.2213  -8.8681  -8.6540  -8.6158  -8.5207  -8.3843
    -8.3765  -8.3003  -8.1954  -8.1599  -7.9483  -7.3790  -7.1987  -7.1241
    -7.0563  -6.3232  -5.5096  -5.2178  -4.9381  -4.7515  -4.6904  -4.5156
    -4.4585  -4.2117  -3.7636

          k =-0.3333-0.3333 0.3333 (164442 PWs)   bands (ev):

   -25.6929 -24.7455 -24.5435 -24.4278 -23.7001 -21.6762 -21.2431 -21.1456
   -20.5467 -18.3380 -17.8590 -16.8731 -16.4022 -15.4720 -14.3939 -14.0445
   -13.2008 -13.1719 -12.5522 -12.3692 -12.0011 -11.8351 -11.5122 -11.3539
   -11.0150 -10.6886 -10.6304 -10.3694 -10.2616 -10.0580  -9.8506  -9.7846
    -9.6115  -9.3317  -9.2214  -8.8681  -8.6540  -8.6157  -8.5207  -8.3843
    -8.3767  -8.3003  -8.1954  -8.1599  -7.9480  -7.3791  -7.1988  -7.1241
    -7.0563  -6.3231  -5.5096  -5.2178  -4.9381  -4.7516  -4.6904  -4.5156
    -4.4585  -4.2116  -3.7636

          k =-0.3333 0.3333-0.3333 (164442 PWs)   bands (ev):

   -25.6929 -24.7455 -24.5435 -24.4278 -23.7001 -21.6762 -21.2431 -21.1456
   -20.5467 -18.3380 -17.8590 -16.8731 -16.4022 -15.4720 -14.3939 -14.0445
   -13.2008 -13.1719 -12.5522 -12.3692 -12.0011 -11.8351 -11.5122 -11.3539
   -11.0150 -10.6886 -10.6304 -10.3694 -10.2616 -10.0580  -9.8506  -9.7846
    -9.6114  -9.3317  -9.2214  -8.8681  -8.6540  -8.6157  -8.5207  -8.3843
    -8.3767  -8.3003  -8.1954  -8.1599  -7.9480  -7.3791  -7.1988  -7.1241
    -7.0563  -6.3231  -5.5096  -5.2178  -4.9381  -4.7516  -4.6904  -4.5156
    -4.4585  -4.2116  -3.7636

          k = 0.3333-0.3333-0.3333 (164442 PWs)   bands (ev):

   -25.6929 -24.7455 -24.5435 -24.4278 -23.7001 -21.6762 -21.2431 -21.1456
   -20.5467 -18.3380 -17.8590 -16.8731 -16.4022 -15.4720 -14.3939 -14.0445
   -13.2008 -13.1719 -12.5522 -12.3692 -12.0011 -11.8351 -11.5122 -11.3539
   -11.0150 -10.6886 -10.6304 -10.3694 -10.2616 -10.0580  -9.8506  -9.7846
    -9.6114  -9.3317  -9.2214  -8.8681  -8.6541  -8.6157  -8.5207  -8.3841
    -8.3768  -8.3002  -8.1954  -8.1599  -7.9480  -7.3791  -7.1988  -7.1241
    -7.0563  -6.3231  -5.5096  -5.2178  -4.9381  -4.7516  -4.6904  -4.5156
    -4.4585  -4.2116  -3.7636

     highest occupied level (ev):    -3.7635

!    total energy              =    -544.13646131 Ry
     Harris-Foulkes estimate   =    -544.13646131 Ry
     estimated scf accuracy    <          7.0E-09 Ry

     total all-electron energy =     -2049.275327 Ry

     The total energy is the sum of the following terms:

     one-electron contribution =   -1106.39316698 Ry
     hartree contribution      =     576.47695558 Ry
     xc contribution           =    -124.82829376 Ry
     ewald contribution        =     252.60153237 Ry
     one-center paw contrib.   =    -141.99348852 Ry

     convergence has been achieved in   7 iterations

     Forces acting on atoms (Ry/au):


     negative rho (up, down):  1.773E-04 0.000E+00
     atom    1 type  2   force =    -0.00443402   -0.00172493   -0.00382188
     atom    2 type  2   force =    -0.00076204   -0.00156893   -0.00120918
     atom    3 type  2   force =     0.00309425   -0.00052805   -0.00147678
     atom    4 type  2   force =     0.00124736    0.00099349    0.00166926
     atom    5 type  2   force =    -0.00222912   -0.00001672   -0.00109553
     atom    6 type  2   force =    -0.00320352   -0.00035597    0.00045068
     atom    7 type  2   force =     0.00219109    0.00159067    0.00130647
     atom    8 type  2   force =     0.00130289   -0.00162302    0.00385204
     atom    9 type  2   force =    -0.00034353   -0.00225031   -0.00189156
     atom   10 type  2   force =     0.00046409   -0.00171386    0.00017866
     atom   11 type  2   force =     0.00127333   -0.00041685    0.00002314
     atom   12 type  2   force =    -0.00265749    0.00052308   -0.00098303
     atom   13 type  2   force =    -0.00039510    0.00037266   -0.00011162
     atom   14 type  2   force =     0.00206225    0.00238552    0.00112577
     atom   15 type  2   force =    -0.00091267   -0.00175235   -0.00183622
     atom   16 type  2   force =     0.00059138    0.00186381    0.00096635
     atom   17 type  2   force =     0.00172426   -0.00114077    0.00252589
     atom   18 type  2   force =     0.00022767   -0.00086185   -0.00421121
     atom   19 type  2   force =     0.00312574   -0.00282272   -0.00220808
     atom   20 type  2   force =     0.00111384    0.00076863   -0.00002843
     atom   21 type  2   force =     0.00017558    0.00110419    0.00185910
     atom   22 type  2   force =     0.00059341   -0.00064294    0.00039665
     atom   23 type  2   force =     0.00069629   -0.00183374   -0.00300676
     atom   24 type  2   force =     0.00093700    0.00243197    0.00144315
     atom   25 type  1   force =     0.00116491   -0.00069537   -0.00188971
     atom   26 type  1   force =     0.00012446    0.00138887   -0.00119404
     atom   27 type  1   force =     0.00043375    0.00129400    0.00058886
     atom   28 type  1   force =     0.00037842    0.00015784   -0.00010069
     atom   29 type  1   force =     0.00061302   -0.00058283   -0.00065409
     atom   30 type  1   force =     0.00035821    0.00135327    0.00045823
     atom   31 type  1   force =    -0.00040750    0.00134238   -0.00136292
     atom   32 type  1   force =     0.00021381    0.00277623    0.00081425
     atom   33 type  1   force =    -0.00096294   -0.00074282   -0.00020788
     atom   34 type  1   force =    -0.00117664    0.00023338    0.00169592
     atom   35 type  1   force =    -0.00031586   -0.00018198   -0.00075147
     atom   36 type  3   force =     0.00234648   -0.00191117    0.00200758
     atom   37 type  3   force =    -0.00276572    0.00102708    0.00021469
     atom   38 type  3   force =    -0.00059045    0.00007248   -0.00104118
     atom   39 type  3   force =    -0.00162908    0.00281983    0.00328633
     atom   40 type  4   force =    -0.00267133   -0.00119847    0.00465465
     atom   41 type  4   force =     0.00170818    0.00294175   -0.00034645
     atom   42 type  4   force =     0.00087242    0.00111071    0.00038260
     atom   43 type  4   force =    -0.00150889   -0.00297809   -0.00253698
     atom   44 type  4   force =    -0.00206820   -0.00100809    0.00206546

     Total force =     0.019492     Total SCF correction =     0.000111

     number of scf cycles    =  50
     number of bfgs steps    =  49

     energy   old            =    -544.1357568524 Ry
     energy   new            =    -544.1364613131 Ry

     CASE: energy  _new < energy  _old

     new trust radius        =       0.0509456707 bohr

     The maximum number of steps has been reached.

     End of BFGS Geometry Optimization
Begin final coordinates

ATOMIC_POSITIONS (crystal)
H        0.751086853   0.901479407   0.677303789
H        0.622155090   0.862147960   0.646609311
H        0.822842968   0.719591339   0.656621754
H        0.764812897   0.683580515   0.441439144
H        0.666295825   0.614820598   0.726520281
H        0.718801793   0.564733732   0.594319233
H        0.519147884   0.581115064   0.599517328
H        0.746017612   0.274268946   0.408373274
H        0.547139062   0.252453506   0.383353235
H        0.699712727   0.162192277   0.198537526
H        0.486355861   0.319227033   0.177856848
H        0.606670700   0.407387466   0.191391665
H        0.514546649   0.464175189   0.387981894
H        0.389373299   0.406773031   0.328150334
H        0.707099832   0.401166595   0.367407329
H        0.354905713   0.645392324   0.145609658
H        0.296597533   0.520241959   0.194604110
H        0.188993656   0.401601202   0.832814238
H        0.363331083   0.321742597   0.788487011
H        0.281374253   0.471864424   0.595043867
H        0.378081595   0.211799742   0.603844029
H        0.271549133   0.157912426   0.694580073
H        0.233291458   0.245203610   0.578844164
H        0.140924914   0.292289731   0.761444307
C        0.739485962   0.740397074   0.620390802
C        0.763202757   0.760876451   0.496012726
C        0.671152663   0.633966989   0.635586017
C        0.602540394   0.274658092   0.311570334
C        0.615910479   0.169165953   0.241422889
C        0.541404395   0.361693255   0.238863248
C        0.471715883   0.444588104   0.308259835
C        0.461519564   0.555026654   0.245898515
C        0.302962016   0.334866708   0.719116910
C        0.347761060   0.428753223   0.646278639
C        0.297309906   0.231073270   0.644174318
N        0.695801071   0.835695498   0.682009130
N        0.711805809   0.318630239   0.343563468
N        0.362970465   0.573373792   0.190590242
N        0.190321645   0.362185190   0.756602589
O        0.782506036   0.852640040   0.456379137
O        0.564327813   0.649242445   0.586827162
O        0.542467868   0.099889573   0.229100471
O        0.539716651   0.621799643   0.242534711
O        0.446433172   0.454948134   0.640955453
End final coordinates



     Writing output data file aiida.save

     init_run     :    142.88s CPU    145.14s WALL (       1 calls)
     electrons    : 116596.06s CPU 118699.73s WALL (      50 calls)
     update_pot   :    321.14s CPU    331.29s WALL (      49 calls)
     forces       :   3249.07s CPU   3290.37s WALL (      50 calls)

     Called by init_run:
     wfcinit      :    126.06s CPU    127.96s WALL (       1 calls)
     potinit      :      3.08s CPU      3.14s WALL (       1 calls)

     Called by electrons:
     c_bands      :  99877.45s CPU 101734.07s WALL (     434 calls)
     sum_band     :  13252.56s CPU  13443.21s WALL (     434 calls)
     v_of_rho     :    607.56s CPU    620.18s WALL (     484 calls)
     newd         :   2907.14s CPU   2943.90s WALL (     484 calls)
     mix_rho      :     98.04s CPU    102.39s WALL (     434 calls)

     Called by c_bands:
     init_us_2    :    468.22s CPU    477.75s WALL (   13552 calls)
     cegterg      :  98931.52s CPU 100751.08s WALL (    6076 calls)

     Called by *egterg:
     h_psi        :  56960.49s CPU  57721.03s WALL (   29198 calls)
     s_psi        :  12684.96s CPU  12815.44s WALL (   29198 calls)
     g_psi        :    112.43s CPU    114.28s WALL (   23108 calls)
     cdiaghg      :    975.60s CPU    992.80s WALL (   28498 calls)

     Called by h_psi:
     add_vuspsi   :  12782.41s CPU  12919.27s WALL (   29198 calls)

     General routines
     calbec       :  18112.81s CPU  18317.36s WALL (   36660 calls)
     fft          :    728.51s CPU    742.40s WALL (    8143 calls)
     ffts         :     21.65s CPU     22.30s WALL (     918 calls)
     fftw         :  29162.66s CPU  29626.13s WALL ( 2434734 calls)
     interpolate  :     98.80s CPU    101.93s WALL (     918 calls)
     davcio       :      0.00s CPU      0.31s WALL (      14 calls)

     Parallel routines
     fft_scatter  :  13746.01s CPU  14022.73s WALL ( 2443795 calls)

     PAW routines
     PAW_pot      :    165.45s CPU    166.58s WALL (     533 calls)

     PWSCF        :     1d    9h39m CPU        1d   10h15m WALL


   This run was terminated on:   2:56:27  10Jan2023            

=------------------------------------------------------------------------------=
   JOB DONE.
=------------------------------------------------------------------------------=
