
     Program PWSCF v.5.1 starts on 11Jan2023 at 12:33:32 

     This program is part of the open-source Quantum ESPRESSO suite
     for quantum simulation of materials; please cite
         "P. Giannozzi et al., J. Phys.:Condens. Matter 21 395502 (2009);
          URL http://www.quantum-espresso.org", 
     in publications or presentations arising from this work. More details at
     http://www.quantum-espresso.org/quote

     Parallel version (MPI), running on    16 processors
     R & G space division:  proc/nbgrp/npool/nimage =      16
     Waiting for input...
     Reading input from standard input

     Current dimensions of program PWSCF are:
     Max number of different atomic species (ntypx) = 10
     Max number of k-points (npk) =  40000
     Max angular momentum in pseudopotentials (lmaxx) =  3

     Atomic positions and unit cell read from directory:
     ./out/aiida.save/

               file C.pbesol-n-kjpaw_psl.1.0.0.UPF: wavefunction(s)  2S 2P renormalized
               file H.pbesol-kjpaw_psl.0.1.UPF: wavefunction(s)  1S renormalized
               file N.pbesol-n-kjpaw_psl.0.1.UPF: wavefunction(s)  2P renormalized
               file O.pbesol-n-kjpaw_psl.0.1.UPF: wavefunction(s)  2P renormalized

     Subspace diagonalization in iterative solution of the eigenvalue problem:
     scalapack distributed-memory algorithm (size of sub-group:  2*  2 procs)


     Parallelization info
     --------------------
     sticks:   dense  smooth     PW     G-vecs:    dense   smooth      PW
     Min        1812     905    238               232514    82195   11094
     Max        1813     906    239               232519    82231   11097
     Sum       29005   14485   3809              3720285  1315387  177509



     bravais-lattice index     =            0
     lattice parameter (alat)  =      22.5090  a.u.
     unit-cell volume          =   11404.2970 (a.u.)^3
     number of atoms/cell      =           44
     number of atomic types    =            4
     number of electrons       =       118.00
     number of Kohn-Sham states=          100
     kinetic-energy cutoff     =      90.0000  Ry
     charge density cutoff     =     720.0000  Ry
     Exchange-correlation      =  SLA  PW   PSX  PSC ( 1  4 10  8 0)

     celldm(1)=  22.508999  celldm(2)=   0.000000  celldm(3)=   0.000000
     celldm(4)=   0.000000  celldm(5)=   0.000000  celldm(6)=   0.000000

     crystal axes: (cart. coord. in units of alat)
               a(1) = (   1.000000   0.000000   0.000000 )  
               a(2) = (   0.000000   1.000000   0.000000 )  
               a(3) = (   0.000000   0.000000   1.000000 )  

     reciprocal axes: (cart. coord. in units 2 pi/alat)
               b(1) = (  1.000000  0.000000  0.000000 )  
               b(2) = (  0.000000  1.000000  0.000000 )  
               b(3) = (  0.000000  0.000000  1.000000 )  


     PseudoPot. # 1 for  C read from file:
     ./pseudo/C.pbesol-n-kjpaw_psl.1.0.0.UPF
     MD5 check sum: 5f3a56537b2bcef3348431d8311bb923
     Pseudo is Projector augmented-wave + core cor, Zval =  4.0
     Generated using "atomic" code by A. Dal Corso  v.6.0 svn rev. 13079
     Shape of augmentation charge: PSQ
     Using radial grid of 1073 points,  4 beta functions with: 
                l(1) =   0
                l(2) =   0
                l(3) =   1
                l(4) =   1
     Q(r) pseudized with 0 coefficients 


     PseudoPot. # 2 for  H read from file:
     ./pseudo/H.pbesol-kjpaw_psl.0.1.UPF
     MD5 check sum: 27a6b98f1514c59d399e798f1258b8b7
     Pseudo is Projector augmented-wave, Zval =  1.0
     Generated using "atomic" code by A. Dal Corso  v.5.0.2 svn rev. 9415
     Shape of augmentation charge: PSQ
     Using radial grid of  929 points,  2 beta functions with: 
                l(1) =   0
                l(2) =   0
     Q(r) pseudized with 0 coefficients 


     PseudoPot. # 3 for  N read from file:
     ./pseudo/N.pbesol-n-kjpaw_psl.0.1.UPF
     MD5 check sum: 15bd223d5d75e9eda893d0f4e6bdad1b
     Pseudo is Projector augmented-wave + core cor, Zval =  5.0
     Generated using "atomic" code by A. Dal Corso  v.6.3
     Shape of augmentation charge: PSQ
     Using radial grid of 1085 points,  4 beta functions with: 
                l(1) =   0
                l(2) =   0
                l(3) =   1
                l(4) =   1
     Q(r) pseudized with 0 coefficients 


     PseudoPot. # 4 for  O read from file:
     ./pseudo/O.pbesol-n-kjpaw_psl.0.1.UPF
     MD5 check sum: 81d73d1479e654e5638b0319f0d6c2c7
     Pseudo is Projector augmented-wave + core cor, Zval =  6.0
     Generated using "atomic" code by A. Dal Corso  v.6.0 svn rev. 13079
     Shape of augmentation charge: BESSEL
     Using radial grid of 1095 points,  4 beta functions with: 
                l(1) =   0
                l(2) =   0
                l(3) =   1
                l(4) =   1
     Q(r) pseudized with 0 coefficients 


     atomic species   valence    mass     pseudopotential
        C              4.00    12.01070      C( 1.00)
        H              1.00     1.00794      H( 1.00)
        N              5.00    14.00670      N( 1.00)
        O              6.00    15.99940      O( 1.00)

     No symmetry found


                                    s                        frac. trans.

      isym =  1     identity                                     

 cryst.   s( 1) = (     1          0          0      )
                  (     0          1          0      )
                  (     0          0          1      )

 cart.    s( 1) = (  1.0000000  0.0000000  0.0000000 )
                  (  0.0000000  1.0000000  0.0000000 )
                  (  0.0000000  0.0000000  1.0000000 )


     point group C_1 (1)    
     there are  1 classes
     the character table:

       E    
A      1.00

     the symmetry operations in each class:
     E        1

   Cartesian axes

     site n.     atom                  positions (alat units)
         1           H   tau(   1) = (   0.7510869   0.9014794   0.6773038  )
         2           H   tau(   2) = (   0.6221551   0.8621480   0.6466093  )
         3           H   tau(   3) = (   0.8228430   0.7195913   0.6566218  )
         4           H   tau(   4) = (   0.7648129   0.6835805   0.4414391  )
         5           H   tau(   5) = (   0.6662958   0.6148206   0.7265203  )
         6           H   tau(   6) = (   0.7188018   0.5647337   0.5943192  )
         7           H   tau(   7) = (   0.5191479   0.5811151   0.5995173  )
         8           H   tau(   8) = (   0.7460176   0.2742689   0.4083733  )
         9           H   tau(   9) = (   0.5471391   0.2524535   0.3833532  )
        10           H   tau(  10) = (   0.6997127   0.1621923   0.1985375  )
        11           H   tau(  11) = (   0.4863559   0.3192270   0.1778568  )
        12           H   tau(  12) = (   0.6066707   0.4073875   0.1913917  )
        13           H   tau(  13) = (   0.5145466   0.4641752   0.3879819  )
        14           H   tau(  14) = (   0.3893733   0.4067730   0.3281503  )
        15           H   tau(  15) = (   0.7070998   0.4011666   0.3674073  )
        16           H   tau(  16) = (   0.3549057   0.6453923   0.1456097  )
        17           H   tau(  17) = (   0.2965975   0.5202420   0.1946041  )
        18           H   tau(  18) = (   0.1889937   0.4016012   0.8328142  )
        19           H   tau(  19) = (   0.3633311   0.3217426   0.7884870  )
        20           H   tau(  20) = (   0.2813743   0.4718644   0.5950439  )
        21           H   tau(  21) = (   0.3780816   0.2117997   0.6038440  )
        22           H   tau(  22) = (   0.2715491   0.1579124   0.6945801  )
        23           H   tau(  23) = (   0.2332915   0.2452036   0.5788442  )
        24           H   tau(  24) = (   0.1409249   0.2922897   0.7614443  )
        25           C   tau(  25) = (   0.7394860   0.7403971   0.6203908  )
        26           C   tau(  26) = (   0.7632028   0.7608765   0.4960127  )
        27           C   tau(  27) = (   0.6711527   0.6339670   0.6355860  )
        28           C   tau(  28) = (   0.6025404   0.2746581   0.3115703  )
        29           C   tau(  29) = (   0.6159105   0.1691660   0.2414229  )
        30           C   tau(  30) = (   0.5414044   0.3616933   0.2388632  )
        31           C   tau(  31) = (   0.4717159   0.4445881   0.3082598  )
        32           C   tau(  32) = (   0.4615196   0.5550267   0.2458985  )
        33           C   tau(  33) = (   0.3029620   0.3348667   0.7191169  )
        34           C   tau(  34) = (   0.3477611   0.4287532   0.6462786  )
        35           C   tau(  35) = (   0.2973099   0.2310733   0.6441743  )
        36           N   tau(  36) = (   0.6958011   0.8356955   0.6820091  )
        37           N   tau(  37) = (   0.7118058   0.3186302   0.3435635  )
        38           N   tau(  38) = (   0.3629705   0.5733738   0.1905902  )
        39           N   tau(  39) = (   0.1903216   0.3621852   0.7566026  )
        40           O   tau(  40) = (   0.7825060   0.8526400   0.4563791  )
        41           O   tau(  41) = (   0.5643278   0.6492424   0.5868272  )
        42           O   tau(  42) = (   0.5424679   0.0998896   0.2291005  )
        43           O   tau(  43) = (   0.5397167   0.6217996   0.2425347  )
        44           O   tau(  44) = (   0.4464332   0.4549481   0.6409555  )

   Crystallographic axes

     site n.     atom                  positions (cryst. coord.)
         1           H   tau(   1) = (  0.7510869  0.9014794  0.6773038  )
         2           H   tau(   2) = (  0.6221551  0.8621480  0.6466093  )
         3           H   tau(   3) = (  0.8228430  0.7195913  0.6566218  )
         4           H   tau(   4) = (  0.7648129  0.6835805  0.4414391  )
         5           H   tau(   5) = (  0.6662958  0.6148206  0.7265203  )
         6           H   tau(   6) = (  0.7188018  0.5647337  0.5943192  )
         7           H   tau(   7) = (  0.5191479  0.5811151  0.5995173  )
         8           H   tau(   8) = (  0.7460176  0.2742689  0.4083733  )
         9           H   tau(   9) = (  0.5471391  0.2524535  0.3833532  )
        10           H   tau(  10) = (  0.6997127  0.1621923  0.1985375  )
        11           H   tau(  11) = (  0.4863559  0.3192270  0.1778568  )
        12           H   tau(  12) = (  0.6066707  0.4073875  0.1913917  )
        13           H   tau(  13) = (  0.5145466  0.4641752  0.3879819  )
        14           H   tau(  14) = (  0.3893733  0.4067730  0.3281503  )
        15           H   tau(  15) = (  0.7070998  0.4011666  0.3674073  )
        16           H   tau(  16) = (  0.3549057  0.6453923  0.1456097  )
        17           H   tau(  17) = (  0.2965975  0.5202420  0.1946041  )
        18           H   tau(  18) = (  0.1889937  0.4016012  0.8328142  )
        19           H   tau(  19) = (  0.3633311  0.3217426  0.7884870  )
        20           H   tau(  20) = (  0.2813743  0.4718644  0.5950439  )
        21           H   tau(  21) = (  0.3780816  0.2117997  0.6038440  )
        22           H   tau(  22) = (  0.2715491  0.1579124  0.6945801  )
        23           H   tau(  23) = (  0.2332915  0.2452036  0.5788442  )
        24           H   tau(  24) = (  0.1409249  0.2922897  0.7614443  )
        25           C   tau(  25) = (  0.7394860  0.7403971  0.6203908  )
        26           C   tau(  26) = (  0.7632028  0.7608765  0.4960127  )
        27           C   tau(  27) = (  0.6711527  0.6339670  0.6355860  )
        28           C   tau(  28) = (  0.6025404  0.2746581  0.3115703  )
        29           C   tau(  29) = (  0.6159105  0.1691660  0.2414229  )
        30           C   tau(  30) = (  0.5414044  0.3616933  0.2388632  )
        31           C   tau(  31) = (  0.4717159  0.4445881  0.3082598  )
        32           C   tau(  32) = (  0.4615196  0.5550267  0.2458985  )
        33           C   tau(  33) = (  0.3029620  0.3348667  0.7191169  )
        34           C   tau(  34) = (  0.3477611  0.4287532  0.6462786  )
        35           C   tau(  35) = (  0.2973099  0.2310733  0.6441743  )
        36           N   tau(  36) = (  0.6958011  0.8356955  0.6820091  )
        37           N   tau(  37) = (  0.7118058  0.3186302  0.3435635  )
        38           N   tau(  38) = (  0.3629705  0.5733738  0.1905902  )
        39           N   tau(  39) = (  0.1903216  0.3621852  0.7566026  )
        40           O   tau(  40) = (  0.7825060  0.8526400  0.4563791  )
        41           O   tau(  41) = (  0.5643278  0.6492424  0.5868272  )
        42           O   tau(  42) = (  0.5424679  0.0998896  0.2291005  )
        43           O   tau(  43) = (  0.5397167  0.6217996  0.2425347  )
        44           O   tau(  44) = (  0.4464332  0.4549481  0.6409555  )

     number of k points=   112 (tetrahedron method)
                       cart. coord. in units 2pi/alat
        k(    1) = (   0.0000000   0.0000000   0.0000000), wk =   0.0092593
        k(    2) = (   0.0000000   0.0000000   0.1666667), wk =   0.0185185
        k(    3) = (   0.0000000   0.0000000   0.3333333), wk =   0.0185185
        k(    4) = (   0.0000000   0.0000000  -0.5000000), wk =   0.0092593
        k(    5) = (   0.0000000   0.1666667   0.1666667), wk =   0.0185185
        k(    6) = (   0.0000000   0.1666667   0.3333333), wk =   0.0185185
        k(    7) = (   0.0000000   0.1666667  -0.5000000), wk =   0.0185185
        k(    8) = (   0.0000000   0.3333333   0.3333333), wk =   0.0185185
        k(    9) = (   0.0000000   0.3333333  -0.5000000), wk =   0.0185185
        k(   10) = (   0.0000000  -0.5000000  -0.5000000), wk =   0.0092593
        k(   11) = (   0.1666667   0.1666667   0.1666667), wk =   0.0185185
        k(   12) = (   0.1666667   0.1666667   0.3333333), wk =   0.0185185
        k(   13) = (   0.1666667   0.1666667  -0.5000000), wk =   0.0185185
        k(   14) = (   0.1666667   0.3333333   0.3333333), wk =   0.0185185
        k(   15) = (   0.1666667   0.3333333  -0.5000000), wk =   0.0185185
        k(   16) = (   0.1666667  -0.5000000  -0.5000000), wk =   0.0185185
        k(   17) = (   0.3333333   0.3333333   0.3333333), wk =   0.0185185
        k(   18) = (   0.3333333   0.3333333  -0.5000000), wk =   0.0185185
        k(   19) = (   0.3333333  -0.5000000  -0.5000000), wk =   0.0185185
        k(   20) = (  -0.5000000  -0.5000000  -0.5000000), wk =   0.0092593
        k(   21) = (   0.1666667   0.0000000   0.0000000), wk =   0.0185185
        k(   22) = (   0.0000000   0.1666667   0.0000000), wk =   0.0185185
        k(   23) = (   0.3333333   0.0000000   0.0000000), wk =   0.0185185
        k(   24) = (   0.0000000   0.3333333   0.0000000), wk =   0.0185185
        k(   25) = (  -0.5000000   0.0000000   0.0000000), wk =   0.0092593
        k(   26) = (   0.0000000  -0.5000000   0.0000000), wk =   0.0092593
        k(   27) = (   0.0000000  -0.1666667   0.1666667), wk =   0.0185185
        k(   28) = (   0.1666667   0.0000000  -0.1666667), wk =   0.0185185
        k(   29) = (  -0.1666667   0.0000000  -0.1666667), wk =   0.0185185
        k(   30) = (   0.1666667  -0.1666667   0.0000000), wk =   0.0185185
        k(   31) = (  -0.1666667  -0.1666667   0.0000000), wk =   0.0185185
        k(   32) = (   0.0000000  -0.1666667   0.3333333), wk =   0.0185185
        k(   33) = (   0.1666667   0.0000000  -0.3333333), wk =   0.0185185
        k(   34) = (  -0.1666667   0.0000000  -0.3333333), wk =   0.0185185
        k(   35) = (   0.3333333  -0.1666667   0.0000000), wk =   0.0185185
        k(   36) = (  -0.3333333  -0.1666667   0.0000000), wk =   0.0185185
        k(   37) = (   0.0000000   0.3333333   0.1666667), wk =   0.0185185
        k(   38) = (   0.0000000   0.3333333  -0.1666667), wk =   0.0185185
        k(   39) = (   0.1666667   0.3333333   0.0000000), wk =   0.0185185
        k(   40) = (  -0.1666667   0.3333333   0.0000000), wk =   0.0185185
        k(   41) = (   0.3333333   0.0000000   0.1666667), wk =   0.0185185
        k(   42) = (   0.3333333   0.0000000  -0.1666667), wk =   0.0185185
        k(   43) = (   0.1666667   0.0000000   0.5000000), wk =   0.0185185
        k(   44) = (  -0.5000000  -0.1666667   0.0000000), wk =   0.0185185
        k(   45) = (   0.0000000  -0.5000000   0.1666667), wk =   0.0185185
        k(   46) = (   0.1666667  -0.5000000   0.0000000), wk =   0.0185185
        k(   47) = (  -0.5000000   0.0000000   0.1666667), wk =   0.0185185
        k(   48) = (   0.0000000  -0.3333333   0.3333333), wk =   0.0185185
        k(   49) = (   0.3333333   0.0000000  -0.3333333), wk =   0.0185185
        k(   50) = (  -0.3333333   0.0000000  -0.3333333), wk =   0.0185185
        k(   51) = (   0.3333333  -0.3333333   0.0000000), wk =   0.0185185
        k(   52) = (  -0.3333333  -0.3333333   0.0000000), wk =   0.0185185
        k(   53) = (   0.3333333   0.0000000   0.5000000), wk =   0.0185185
        k(   54) = (  -0.5000000  -0.3333333   0.0000000), wk =   0.0185185
        k(   55) = (   0.0000000  -0.5000000   0.3333333), wk =   0.0185185
        k(   56) = (   0.3333333  -0.5000000   0.0000000), wk =   0.0185185
        k(   57) = (  -0.5000000   0.0000000   0.3333333), wk =   0.0185185
        k(   58) = (  -0.5000000   0.0000000   0.5000000), wk =   0.0092593
        k(   59) = (  -0.5000000   0.5000000   0.0000000), wk =   0.0092593
        k(   60) = (  -0.1666667  -0.1666667   0.1666667), wk =   0.0185185
        k(   61) = (  -0.1666667   0.1666667  -0.1666667), wk =   0.0185185
        k(   62) = (   0.1666667  -0.1666667  -0.1666667), wk =   0.0185185
        k(   63) = (  -0.1666667  -0.1666667   0.3333333), wk =   0.0185185
        k(   64) = (  -0.1666667   0.1666667  -0.3333333), wk =   0.0185185
        k(   65) = (   0.1666667  -0.1666667  -0.3333333), wk =   0.0185185
        k(   66) = (   0.3333333  -0.1666667   0.1666667), wk =   0.0185185
        k(   67) = (  -0.3333333  -0.1666667  -0.1666667), wk =   0.0185185
        k(   68) = (   0.3333333   0.1666667  -0.1666667), wk =   0.0185185
        k(   69) = (  -0.3333333   0.1666667   0.1666667), wk =   0.0185185
        k(   70) = (  -0.1666667   0.3333333   0.1666667), wk =   0.0185185
        k(   71) = (  -0.1666667  -0.3333333  -0.1666667), wk =   0.0185185
        k(   72) = (   0.1666667   0.3333333  -0.1666667), wk =   0.0185185
        k(   73) = (   0.1666667  -0.3333333   0.1666667), wk =   0.0185185
        k(   74) = (  -0.1666667   0.1666667   0.5000000), wk =   0.0185185
        k(   75) = (  -0.5000000  -0.1666667   0.1666667), wk =   0.0185185
        k(   76) = (   0.5000000  -0.1666667  -0.1666667), wk =   0.0185185
        k(   77) = (  -0.1666667  -0.5000000   0.1666667), wk =   0.0185185
        k(   78) = (  -0.1666667   0.5000000  -0.1666667), wk =   0.0185185
        k(   79) = (  -0.1666667  -0.3333333   0.3333333), wk =   0.0185185
        k(   80) = (  -0.1666667   0.3333333  -0.3333333), wk =   0.0185185
        k(   81) = (   0.1666667  -0.3333333  -0.3333333), wk =   0.0185185
        k(   82) = (   0.3333333   0.1666667  -0.3333333), wk =   0.0185185
        k(   83) = (  -0.3333333  -0.1666667  -0.3333333), wk =   0.0185185
        k(   84) = (   0.3333333  -0.1666667   0.3333333), wk =   0.0185185
        k(   85) = (  -0.3333333   0.1666667   0.3333333), wk =   0.0185185
        k(   86) = (   0.3333333  -0.3333333   0.1666667), wk =   0.0185185
        k(   87) = (  -0.3333333  -0.3333333  -0.1666667), wk =   0.0185185
        k(   88) = (   0.3333333   0.3333333  -0.1666667), wk =   0.0185185
        k(   89) = (  -0.3333333   0.3333333   0.1666667), wk =   0.0185185
        k(   90) = (  -0.1666667   0.3333333   0.5000000), wk =   0.0185185
        k(   91) = (   0.3333333   0.1666667   0.5000000), wk =   0.0185185
        k(   92) = (   0.3333333  -0.1666667  -0.5000000), wk =   0.0185185
        k(   93) = (  -0.5000000  -0.3333333   0.1666667), wk =   0.0185185
        k(   94) = (   0.5000000  -0.3333333  -0.1666667), wk =   0.0185185
        k(   95) = (  -0.1666667  -0.5000000   0.3333333), wk =   0.0185185
        k(   96) = (  -0.1666667   0.5000000  -0.3333333), wk =   0.0185185
        k(   97) = (   0.3333333  -0.5000000   0.1666667), wk =   0.0185185
        k(   98) = (   0.3333333   0.5000000  -0.1666667), wk =   0.0185185
        k(   99) = (  -0.5000000   0.1666667   0.3333333), wk =   0.0185185
        k(  100) = (   0.5000000  -0.1666667   0.3333333), wk =   0.0185185
        k(  101) = (  -0.5000000   0.1666667   0.5000000), wk =   0.0185185
        k(  102) = (  -0.5000000   0.5000000   0.1666667), wk =   0.0185185
        k(  103) = (  -0.3333333  -0.3333333   0.3333333), wk =   0.0185185
        k(  104) = (  -0.3333333   0.3333333  -0.3333333), wk =   0.0185185
        k(  105) = (   0.3333333  -0.3333333  -0.3333333), wk =   0.0185185
        k(  106) = (  -0.3333333   0.3333333   0.5000000), wk =   0.0185185
        k(  107) = (  -0.5000000  -0.3333333   0.3333333), wk =   0.0185185
        k(  108) = (   0.5000000  -0.3333333  -0.3333333), wk =   0.0185185
        k(  109) = (  -0.3333333  -0.5000000   0.3333333), wk =   0.0185185
        k(  110) = (  -0.3333333   0.5000000  -0.3333333), wk =   0.0185185
        k(  111) = (  -0.5000000   0.3333333   0.5000000), wk =   0.0185185
        k(  112) = (  -0.5000000   0.5000000   0.3333333), wk =   0.0185185

                       cryst. coord.
        k(    1) = (   0.0000000   0.0000000   0.0000000), wk =   0.0092593
        k(    2) = (   0.0000000   0.0000000   0.1666667), wk =   0.0185185
        k(    3) = (   0.0000000   0.0000000   0.3333333), wk =   0.0185185
        k(    4) = (   0.0000000   0.0000000  -0.5000000), wk =   0.0092593
        k(    5) = (   0.0000000   0.1666667   0.1666667), wk =   0.0185185
        k(    6) = (   0.0000000   0.1666667   0.3333333), wk =   0.0185185
        k(    7) = (   0.0000000   0.1666667  -0.5000000), wk =   0.0185185
        k(    8) = (   0.0000000   0.3333333   0.3333333), wk =   0.0185185
        k(    9) = (   0.0000000   0.3333333  -0.5000000), wk =   0.0185185
        k(   10) = (   0.0000000  -0.5000000  -0.5000000), wk =   0.0092593
        k(   11) = (   0.1666667   0.1666667   0.1666667), wk =   0.0185185
        k(   12) = (   0.1666667   0.1666667   0.3333333), wk =   0.0185185
        k(   13) = (   0.1666667   0.1666667  -0.5000000), wk =   0.0185185
        k(   14) = (   0.1666667   0.3333333   0.3333333), wk =   0.0185185
        k(   15) = (   0.1666667   0.3333333  -0.5000000), wk =   0.0185185
        k(   16) = (   0.1666667  -0.5000000  -0.5000000), wk =   0.0185185
        k(   17) = (   0.3333333   0.3333333   0.3333333), wk =   0.0185185
        k(   18) = (   0.3333333   0.3333333  -0.5000000), wk =   0.0185185
        k(   19) = (   0.3333333  -0.5000000  -0.5000000), wk =   0.0185185
        k(   20) = (  -0.5000000  -0.5000000  -0.5000000), wk =   0.0092593
        k(   21) = (   0.1666667   0.0000000   0.0000000), wk =   0.0185185
        k(   22) = (   0.0000000   0.1666667   0.0000000), wk =   0.0185185
        k(   23) = (   0.3333333   0.0000000   0.0000000), wk =   0.0185185
        k(   24) = (   0.0000000   0.3333333   0.0000000), wk =   0.0185185
        k(   25) = (  -0.5000000   0.0000000   0.0000000), wk =   0.0092593
        k(   26) = (   0.0000000  -0.5000000   0.0000000), wk =   0.0092593
        k(   27) = (   0.0000000  -0.1666667   0.1666667), wk =   0.0185185
        k(   28) = (   0.1666667   0.0000000  -0.1666667), wk =   0.0185185
        k(   29) = (  -0.1666667   0.0000000  -0.1666667), wk =   0.0185185
        k(   30) = (   0.1666667  -0.1666667   0.0000000), wk =   0.0185185
        k(   31) = (  -0.1666667  -0.1666667   0.0000000), wk =   0.0185185
        k(   32) = (   0.0000000  -0.1666667   0.3333333), wk =   0.0185185
        k(   33) = (   0.1666667   0.0000000  -0.3333333), wk =   0.0185185
        k(   34) = (  -0.1666667   0.0000000  -0.3333333), wk =   0.0185185
        k(   35) = (   0.3333333  -0.1666667   0.0000000), wk =   0.0185185
        k(   36) = (  -0.3333333  -0.1666667   0.0000000), wk =   0.0185185
        k(   37) = (   0.0000000   0.3333333   0.1666667), wk =   0.0185185
        k(   38) = (   0.0000000   0.3333333  -0.1666667), wk =   0.0185185
        k(   39) = (   0.1666667   0.3333333   0.0000000), wk =   0.0185185
        k(   40) = (  -0.1666667   0.3333333   0.0000000), wk =   0.0185185
        k(   41) = (   0.3333333   0.0000000   0.1666667), wk =   0.0185185
        k(   42) = (   0.3333333   0.0000000  -0.1666667), wk =   0.0185185
        k(   43) = (   0.1666667   0.0000000   0.5000000), wk =   0.0185185
        k(   44) = (  -0.5000000  -0.1666667   0.0000000), wk =   0.0185185
        k(   45) = (   0.0000000  -0.5000000   0.1666667), wk =   0.0185185
        k(   46) = (   0.1666667  -0.5000000   0.0000000), wk =   0.0185185
        k(   47) = (  -0.5000000   0.0000000   0.1666667), wk =   0.0185185
        k(   48) = (   0.0000000  -0.3333333   0.3333333), wk =   0.0185185
        k(   49) = (   0.3333333   0.0000000  -0.3333333), wk =   0.0185185
        k(   50) = (  -0.3333333   0.0000000  -0.3333333), wk =   0.0185185
        k(   51) = (   0.3333333  -0.3333333   0.0000000), wk =   0.0185185
        k(   52) = (  -0.3333333  -0.3333333   0.0000000), wk =   0.0185185
        k(   53) = (   0.3333333   0.0000000   0.5000000), wk =   0.0185185
        k(   54) = (  -0.5000000  -0.3333333   0.0000000), wk =   0.0185185
        k(   55) = (   0.0000000  -0.5000000   0.3333333), wk =   0.0185185
        k(   56) = (   0.3333333  -0.5000000   0.0000000), wk =   0.0185185
        k(   57) = (  -0.5000000   0.0000000   0.3333333), wk =   0.0185185
        k(   58) = (  -0.5000000   0.0000000   0.5000000), wk =   0.0092593
        k(   59) = (  -0.5000000   0.5000000   0.0000000), wk =   0.0092593
        k(   60) = (  -0.1666667  -0.1666667   0.1666667), wk =   0.0185185
        k(   61) = (  -0.1666667   0.1666667  -0.1666667), wk =   0.0185185
        k(   62) = (   0.1666667  -0.1666667  -0.1666667), wk =   0.0185185
        k(   63) = (  -0.1666667  -0.1666667   0.3333333), wk =   0.0185185
        k(   64) = (  -0.1666667   0.1666667  -0.3333333), wk =   0.0185185
        k(   65) = (   0.1666667  -0.1666667  -0.3333333), wk =   0.0185185
        k(   66) = (   0.3333333  -0.1666667   0.1666667), wk =   0.0185185
        k(   67) = (  -0.3333333  -0.1666667  -0.1666667), wk =   0.0185185
        k(   68) = (   0.3333333   0.1666667  -0.1666667), wk =   0.0185185
        k(   69) = (  -0.3333333   0.1666667   0.1666667), wk =   0.0185185
        k(   70) = (  -0.1666667   0.3333333   0.1666667), wk =   0.0185185
        k(   71) = (  -0.1666667  -0.3333333  -0.1666667), wk =   0.0185185
        k(   72) = (   0.1666667   0.3333333  -0.1666667), wk =   0.0185185
        k(   73) = (   0.1666667  -0.3333333   0.1666667), wk =   0.0185185
        k(   74) = (  -0.1666667   0.1666667   0.5000000), wk =   0.0185185
        k(   75) = (  -0.5000000  -0.1666667   0.1666667), wk =   0.0185185
        k(   76) = (   0.5000000  -0.1666667  -0.1666667), wk =   0.0185185
        k(   77) = (  -0.1666667  -0.5000000   0.1666667), wk =   0.0185185
        k(   78) = (  -0.1666667   0.5000000  -0.1666667), wk =   0.0185185
        k(   79) = (  -0.1666667  -0.3333333   0.3333333), wk =   0.0185185
        k(   80) = (  -0.1666667   0.3333333  -0.3333333), wk =   0.0185185
        k(   81) = (   0.1666667  -0.3333333  -0.3333333), wk =   0.0185185
        k(   82) = (   0.3333333   0.1666667  -0.3333333), wk =   0.0185185
        k(   83) = (  -0.3333333  -0.1666667  -0.3333333), wk =   0.0185185
        k(   84) = (   0.3333333  -0.1666667   0.3333333), wk =   0.0185185
        k(   85) = (  -0.3333333   0.1666667   0.3333333), wk =   0.0185185
        k(   86) = (   0.3333333  -0.3333333   0.1666667), wk =   0.0185185
        k(   87) = (  -0.3333333  -0.3333333  -0.1666667), wk =   0.0185185
        k(   88) = (   0.3333333   0.3333333  -0.1666667), wk =   0.0185185
        k(   89) = (  -0.3333333   0.3333333   0.1666667), wk =   0.0185185
        k(   90) = (  -0.1666667   0.3333333   0.5000000), wk =   0.0185185
        k(   91) = (   0.3333333   0.1666667   0.5000000), wk =   0.0185185
        k(   92) = (   0.3333333  -0.1666667  -0.5000000), wk =   0.0185185
        k(   93) = (  -0.5000000  -0.3333333   0.1666667), wk =   0.0185185
        k(   94) = (   0.5000000  -0.3333333  -0.1666667), wk =   0.0185185
        k(   95) = (  -0.1666667  -0.5000000   0.3333333), wk =   0.0185185
        k(   96) = (  -0.1666667   0.5000000  -0.3333333), wk =   0.0185185
        k(   97) = (   0.3333333  -0.5000000   0.1666667), wk =   0.0185185
        k(   98) = (   0.3333333   0.5000000  -0.1666667), wk =   0.0185185
        k(   99) = (  -0.5000000   0.1666667   0.3333333), wk =   0.0185185
        k(  100) = (   0.5000000  -0.1666667   0.3333333), wk =   0.0185185
        k(  101) = (  -0.5000000   0.1666667   0.5000000), wk =   0.0185185
        k(  102) = (  -0.5000000   0.5000000   0.1666667), wk =   0.0185185
        k(  103) = (  -0.3333333  -0.3333333   0.3333333), wk =   0.0185185
        k(  104) = (  -0.3333333   0.3333333  -0.3333333), wk =   0.0185185
        k(  105) = (   0.3333333  -0.3333333  -0.3333333), wk =   0.0185185
        k(  106) = (  -0.3333333   0.3333333   0.5000000), wk =   0.0185185
        k(  107) = (  -0.5000000  -0.3333333   0.3333333), wk =   0.0185185
        k(  108) = (   0.5000000  -0.3333333  -0.3333333), wk =   0.0185185
        k(  109) = (  -0.3333333  -0.5000000   0.3333333), wk =   0.0185185
        k(  110) = (  -0.3333333   0.5000000  -0.3333333), wk =   0.0185185
        k(  111) = (  -0.5000000   0.3333333   0.5000000), wk =   0.0185185
        k(  112) = (  -0.5000000   0.5000000   0.3333333), wk =   0.0185185

     Dense  grid:  3720285 G-vectors     FFT dimensions: ( 200, 200, 200)

     Smooth grid:  1315387 G-vectors     FFT dimensions: ( 135, 135, 135)

     Largest allocated arrays     est. size (Mb)     dimensions
        Kohn-Sham Wavefunctions        15.78 Mb     (   10340,  100)
        NL pseudopotentials            32.82 Mb     (   10340,  208)
        Each V/rho on FFT grid          7.93 Mb     (  520000)
        Each G-vector array             1.77 Mb     (  232519)
        G-vector shells                 0.06 Mb     (    7628)
     Largest temporary arrays     est. size (Mb)     dimensions
        Auxiliary wavefunctions        63.11 Mb     (   10340,  400)
        Each subspace H/S matrix        0.61 Mb     (     200,  200)
        Each <psi_i|beta_j> matrix      0.32 Mb     (     208,  100)

     The potential is recalculated from file :
     ./out/aiida.save/charge-density.dat


     negative rho (up, down):  1.774E-04 0.000E+00
     Starting wfc are  104 randomized atomic wfcs
     Checking if some PAW data can be deallocated... 
       node    0, deallocated PAW data for type:  1
       node    0, deallocated PAW data for type:  3
       node    0, deallocated PAW data for type:  4
       node    1, deallocated PAW data for type:  1
       node    1, deallocated PAW data for type:  3
       node    1, deallocated PAW data for type:  4
       node    2, deallocated PAW data for type:  1
       node    2, deallocated PAW data for type:  3
       node    2, deallocated PAW data for type:  4
       node    3, deallocated PAW data for type:  1
       node    3, deallocated PAW data for type:  3
       node    3, deallocated PAW data for type:  4
       node    4, deallocated PAW data for type:  1
       node    4, deallocated PAW data for type:  3
       node    4, deallocated PAW data for type:  4
       node    5, deallocated PAW data for type:  1
       node    5, deallocated PAW data for type:  3
       node    5, deallocated PAW data for type:  4
       node    6, deallocated PAW data for type:  1
       node    6, deallocated PAW data for type:  3
       node    6, deallocated PAW data for type:  4
       node    7, deallocated PAW data for type:  1
       node    7, deallocated PAW data for type:  3
       node    7, deallocated PAW data for type:  4
       node    8, deallocated PAW data for type:  2
       node    8, deallocated PAW data for type:  3
       node    8, deallocated PAW data for type:  4
       node    9, deallocated PAW data for type:  2
       node    9, deallocated PAW data for type:  3
       node    9, deallocated PAW data for type:  4
       node   10, deallocated PAW data for type:  2
       node   10, deallocated PAW data for type:  3
       node   10, deallocated PAW data for type:  4
       node   11, deallocated PAW data for type:  2
       node   11, deallocated PAW data for type:  4
       node   12, deallocated PAW data for type:  1
       node   12, deallocated PAW data for type:  2
       node   12, deallocated PAW data for type:  4
       node   13, deallocated PAW data for type:  1
       node   13, deallocated PAW data for type:  2
       node   14, deallocated PAW data for type:  1
       node   14, deallocated PAW data for type:  2
       node   14, deallocated PAW data for type:  3
       node   15, deallocated PAW data for type:  1
       node   15, deallocated PAW data for type:  2
       node   15, deallocated PAW data for type:  3

     Band Structure Calculation
     Davidson diagonalization with overlap

     Computing kpt #:     1
     total cpu time spent up to now is      552.9 secs

     Computing kpt #:     2
     total cpu time spent up to now is      998.5 secs

     Computing kpt #:     3
     total cpu time spent up to now is     1482.9 secs

     Computing kpt #:     4
     c_bands:  1 eigenvalues not converged
     total cpu time spent up to now is     2002.8 secs

     Computing kpt #:     5
     c_bands:  1 eigenvalues not converged
     total cpu time spent up to now is     2504.8 secs

     Computing kpt #:     6
     total cpu time spent up to now is     3006.1 secs

     Computing kpt #:     7
     total cpu time spent up to now is     3473.9 secs

     Computing kpt #:     8
     total cpu time spent up to now is     3908.7 secs

     Computing kpt #:     9
     c_bands:  1 eigenvalues not converged
     total cpu time spent up to now is     4416.2 secs

     Computing kpt #:    10
     total cpu time spent up to now is     4923.7 secs

     Computing kpt #:    11
     total cpu time spent up to now is     5347.6 secs

     Computing kpt #:    12
     total cpu time spent up to now is     5808.0 secs

     Computing kpt #:    13
     total cpu time spent up to now is     6296.4 secs

     Computing kpt #:    14
     total cpu time spent up to now is     6733.9 secs

     Computing kpt #:    15
     c_bands:  1 eigenvalues not converged
     total cpu time spent up to now is     7224.7 secs

     Computing kpt #:    16
     total cpu time spent up to now is     7660.2 secs

     Computing kpt #:    17
     total cpu time spent up to now is     8113.6 secs

     Computing kpt #:    18
     total cpu time spent up to now is     8591.8 secs

     Computing kpt #:    19
     total cpu time spent up to now is     9034.0 secs

     Computing kpt #:    20
     total cpu time spent up to now is     9501.9 secs

     Computing kpt #:    21
     total cpu time spent up to now is     9985.6 secs

     Computing kpt #:    22
     total cpu time spent up to now is    10572.2 secs

     Computing kpt #:    23
     total cpu time spent up to now is    11105.2 secs

     Computing kpt #:    24
     total cpu time spent up to now is    11606.5 secs

     Computing kpt #:    25
     total cpu time spent up to now is    12208.8 secs

     Computing kpt #:    26
     total cpu time spent up to now is    12736.5 secs

     Computing kpt #:    27
     total cpu time spent up to now is    13318.2 secs

     Computing kpt #:    28
     total cpu time spent up to now is    13963.4 secs

     Computing kpt #:    29
     total cpu time spent up to now is    14473.1 secs

     Computing kpt #:    30
     total cpu time spent up to now is    14993.5 secs

     Computing kpt #:    31
     c_bands:  1 eigenvalues not converged
     total cpu time spent up to now is    15509.1 secs

     Computing kpt #:    32
     total cpu time spent up to now is    15954.8 secs

     Computing kpt #:    33
     total cpu time spent up to now is    16416.9 secs

     Computing kpt #:    34
     total cpu time spent up to now is    16893.3 secs

     Computing kpt #:    35
     total cpu time spent up to now is    17391.8 secs

     Computing kpt #:    36
     total cpu time spent up to now is    17881.7 secs

     Computing kpt #:    37
     total cpu time spent up to now is    18366.5 secs

     Computing kpt #:    38
     total cpu time spent up to now is    18849.5 secs

     Computing kpt #:    39
     total cpu time spent up to now is    19338.5 secs

     Computing kpt #:    40
     total cpu time spent up to now is    19832.9 secs

     Computing kpt #:    41
     total cpu time spent up to now is    20391.9 secs

     Computing kpt #:    42
     total cpu time spent up to now is    20916.8 secs

     Computing kpt #:    43
     total cpu time spent up to now is    21496.9 secs

     Computing kpt #:    44
     total cpu time spent up to now is    22283.0 secs

     Computing kpt #:    45
     total cpu time spent up to now is    23027.0 secs

     Computing kpt #:    46
     total cpu time spent up to now is    23757.7 secs

     Computing kpt #:    47
     total cpu time spent up to now is    24344.1 secs

     Computing kpt #:    48
     total cpu time spent up to now is    24884.5 secs

     Computing kpt #:    49
     total cpu time spent up to now is    25575.9 secs

     Computing kpt #:    50
     c_bands:  1 eigenvalues not converged
     total cpu time spent up to now is    26408.9 secs

     Computing kpt #:    51
     total cpu time spent up to now is    26959.2 secs

     Computing kpt #:    52
     total cpu time spent up to now is    27688.4 secs

     Computing kpt #:    53
     c_bands:  1 eigenvalues not converged
     total cpu time spent up to now is    28115.8 secs

     Computing kpt #:    54
     total cpu time spent up to now is    28780.4 secs

     Computing kpt #:    55
     total cpu time spent up to now is    29378.5 secs

     Computing kpt #:    56
     total cpu time spent up to now is    29832.0 secs

     Computing kpt #:    57
     total cpu time spent up to now is    30345.5 secs

     Computing kpt #:    58
     c_bands:  1 eigenvalues not converged
     total cpu time spent up to now is    30908.8 secs

     Computing kpt #:    59
     total cpu time spent up to now is    31532.4 secs

     Computing kpt #:    60
     total cpu time spent up to now is    32168.9 secs

     Computing kpt #:    61
     total cpu time spent up to now is    32788.8 secs

     Computing kpt #:    62
     total cpu time spent up to now is    33253.2 secs

     Computing kpt #:    63
     c_bands:  1 eigenvalues not converged
     total cpu time spent up to now is    33801.1 secs

     Computing kpt #:    64
     total cpu time spent up to now is    34350.6 secs

     Computing kpt #:    65
     total cpu time spent up to now is    34874.0 secs

     Computing kpt #:    66
     c_bands:  1 eigenvalues not converged
     total cpu time spent up to now is    35484.7 secs

     Computing kpt #:    67
     total cpu time spent up to now is    35993.4 secs

     Computing kpt #:    68
     total cpu time spent up to now is    36611.6 secs

     Computing kpt #:    69
     total cpu time spent up to now is    37159.8 secs

     Computing kpt #:    70
     total cpu time spent up to now is    37622.0 secs

     Computing kpt #:    71
     c_bands:  1 eigenvalues not converged
     total cpu time spent up to now is    38141.9 secs

     Computing kpt #:    72
     total cpu time spent up to now is    38622.7 secs

     Computing kpt #:    73
     total cpu time spent up to now is    39146.0 secs

     Computing kpt #:    74
     total cpu time spent up to now is    39592.4 secs

     Computing kpt #:    75
     total cpu time spent up to now is    40101.3 secs

     Computing kpt #:    76
     total cpu time spent up to now is    40615.2 secs

     Computing kpt #:    77
     total cpu time spent up to now is    41219.5 secs

     Computing kpt #:    78
     total cpu time spent up to now is    41864.8 secs

     Computing kpt #:    79
     total cpu time spent up to now is    42531.0 secs

     Computing kpt #:    80
     total cpu time spent up to now is    43079.4 secs

     Computing kpt #:    81
     total cpu time spent up to now is    43692.8 secs

     Computing kpt #:    82
     total cpu time spent up to now is    44257.9 secs

     Computing kpt #:    83
     total cpu time spent up to now is    44752.8 secs

     Computing kpt #:    84
     total cpu time spent up to now is    45275.3 secs

     Computing kpt #:    85
     total cpu time spent up to now is    45761.6 secs

     Computing kpt #:    86
     c_bands:  1 eigenvalues not converged
     total cpu time spent up to now is    46407.5 secs

     Computing kpt #:    87
     total cpu time spent up to now is    46881.2 secs

     Computing kpt #:    88
     c_bands:  1 eigenvalues not converged
     total cpu time spent up to now is    47507.4 secs

     Computing kpt #:    89
     c_bands:  1 eigenvalues not converged
     total cpu time spent up to now is    48049.4 secs

     Computing kpt #:    90
     total cpu time spent up to now is    48650.1 secs

     Computing kpt #:    91
     total cpu time spent up to now is    49223.3 secs

     Computing kpt #:    92
     total cpu time spent up to now is    49829.3 secs

     Computing kpt #:    93
     total cpu time spent up to now is    50419.4 secs

     Computing kpt #:    94
     total cpu time spent up to now is    51018.2 secs

     Computing kpt #:    95
     total cpu time spent up to now is    51614.6 secs

     Computing kpt #:    96
     total cpu time spent up to now is    52273.6 secs

     Computing kpt #:    97
     total cpu time spent up to now is    53088.0 secs

     Computing kpt #:    98
     c_bands:  1 eigenvalues not converged
     total cpu time spent up to now is    53953.5 secs

     Computing kpt #:    99
     total cpu time spent up to now is    54826.9 secs

     Computing kpt #:   100
     c_bands:  1 eigenvalues not converged
     total cpu time spent up to now is    55700.2 secs

     Computing kpt #:   101
     c_bands:  1 eigenvalues not converged
     total cpu time spent up to now is    56522.7 secs

     Computing kpt #:   102
     total cpu time spent up to now is    57362.7 secs

     Computing kpt #:   103
     total cpu time spent up to now is    58132.9 secs

     Computing kpt #:   104
     total cpu time spent up to now is    58647.5 secs

     Computing kpt #:   105
     total cpu time spent up to now is    59033.5 secs

     Computing kpt #:   106
     total cpu time spent up to now is    59562.4 secs

     Computing kpt #:   107
     total cpu time spent up to now is    60383.9 secs

     Computing kpt #:   108
     total cpu time spent up to now is    61198.1 secs

     Computing kpt #:   109
     total cpu time spent up to now is    61969.6 secs

     Computing kpt #:   110
     total cpu time spent up to now is    62791.8 secs

     Computing kpt #:   111
     total cpu time spent up to now is    63617.2 secs

     Computing kpt #:   112
     total cpu time spent up to now is    64169.6 secs

     ethr =  8.47E-12,  avg # of iterations = 96.8

     total cpu time spent up to now is    64169.8 secs

     End of band structure calculation

          k = 0.0000 0.0000 0.0000 (164415 PWs)   bands (ev):

   -25.6882 -24.7501 -24.5540 -24.4299 -23.7208 -21.6767 -21.2493 -21.1419
   -20.5509 -18.3422 -17.8642 -16.8795 -16.4040 -15.4661 -14.3966 -14.0497
   -13.2038 -13.1770 -12.5515 -12.3688 -12.0049 -11.8375 -11.5115 -11.3547
   -11.0150 -10.6982 -10.6273 -10.3794 -10.2699 -10.0566  -9.8498  -9.7837
    -9.6203  -9.3282  -9.2231  -8.8732  -8.6615  -8.6230  -8.5234  -8.3870
    -8.3850  -8.3115  -8.1981  -8.1662  -7.9404  -7.3779  -7.1998  -7.1243
    -7.0585  -6.3446  -5.5167  -5.2215  -4.9276  -4.7636  -4.6917  -4.5227
    -4.4633  -4.2103  -3.7685  -1.5042  -0.7379  -0.4034  -0.0001   0.5426
     0.7076   0.8740   1.0413   1.0684   1.1999   1.4096   1.6518   1.7460
     1.8600   1.8955   1.9985   2.0355   2.1172   2.2749   2.3212   2.3894
     2.4291   2.6219   2.7588   2.8817   2.9634   3.0285   3.2465   3.2843
     3.3729   3.4352   3.4530   3.4889   3.5606   3.7235   3.7855   3.8305
     3.9662   4.0615   4.1112   4.2640

     occupation numbers 
     1.0000   1.0000   1.0000   1.0000   1.0000   1.0000   1.0000   1.0000
     1.0000   1.0000   1.0000   1.0000   1.0000   1.0000   1.0000   1.0000
     1.0000   1.0000   1.0000   1.0000   1.0000   1.0000   1.0000   1.0000
     1.0000   1.0000   1.0000   1.0000   1.0000   1.0000   1.0000   1.0000
     1.0000   1.0000   1.0000   1.0000   1.0000   1.0000   1.0000   1.0000
     1.0000   1.0000   1.0000   1.0000   1.0000   1.0000   1.0000   1.0000
     1.0000   1.0000   1.0000   1.0000   1.0000   1.0000   1.0000   1.0000
     1.0000   1.0000   1.0000   0.0000   0.0000   0.0000   0.0000   0.0000
     0.0000   0.0000   0.0000   0.0000   0.0000   0.0000   0.0000   0.0000
     0.0000   0.0000   0.0000   0.0000   0.0000   0.0000   0.0000   0.0000
     0.0000   0.0000   0.0000   0.0000   0.0000   0.0000   0.0000   0.0000
     0.0000   0.0000   0.0000   0.0000   0.0000   0.0000   0.0000   0.0000
     0.0000   0.0000   0.0000   0.0000

          k = 0.0000 0.0000 0.1667 (164324 PWs)   bands (ev):

   -25.6882 -24.7501 -24.5540 -24.4299 -23.7208 -21.6767 -21.2493 -21.1419
   -20.5509 -18.3422 -17.8642 -16.8795 -16.4040 -15.4661 -14.3966 -14.0497
   -13.2038 -13.1771 -12.5515 -12.3688 -12.0049 -11.8375 -11.5115 -11.3547
   -11.0150 -10.6982 -10.6273 -10.3794 -10.2699 -10.0566  -9.8498  -9.7837
    -9.6203  -9.3282  -9.2231  -8.8732  -8.6615  -8.6230  -8.5234  -8.3871
    -8.3849  -8.3115  -8.1981  -8.1662  -7.9403  -7.3779  -7.1998  -7.1243
    -7.0585  -6.3446  -5.5167  -5.2215  -4.9276  -4.7636  -4.6917  -4.5227
    -4.4633  -4.2103  -3.7685  -1.5043  -0.7380  -0.4033   0.0187   0.4603
     0.7343   0.9049   1.0269   1.1132   1.2246   1.4544   1.5843   1.6837
     1.8060   1.8872   1.9055   2.0820   2.1559   2.3259   2.3712   2.4098
     2.5299   2.6642   2.7268   2.8219   2.8984   3.0517   3.1701   3.2573
     3.3240   3.4026   3.5295   3.5663   3.6856   3.7652   3.8121   3.8882
     3.9640   4.0199   4.1008   4.2220

     occupation numbers 
     1.0000   1.0000   1.0000   1.0000   1.0000   1.0000   1.0000   1.0000
     1.0000   1.0000   1.0000   1.0000   1.0000   1.0000   1.0000   1.0000
     1.0000   1.0000   1.0000   1.0000   1.0000   1.0000   1.0000   1.0000
     1.0000   1.0000   1.0000   1.0000   1.0000   1.0000   1.0000   1.0000
     1.0000   1.0000   1.0000   1.0000   1.0000   1.0000   1.0000   1.0000
     1.0000   1.0000   1.0000   1.0000   1.0000   1.0000   1.0000   1.0000
     1.0000   1.0000   1.0000   1.0000   1.0000   1.0000   1.0000   1.0000
     1.0000   1.0000   1.0000   0.0000   0.0000   0.0000   0.0000   0.0000
     0.0000   0.0000   0.0000   0.0000   0.0000   0.0000   0.0000   0.0000
     0.0000   0.0000   0.0000   0.0000   0.0000   0.0000   0.0000   0.0000
     0.0000   0.0000   0.0000   0.0000   0.0000   0.0000   0.0000   0.0000
     0.0000   0.0000   0.0000   0.0000   0.0000   0.0000   0.0000   0.0000
     0.0000   0.0000   0.0000   0.0000

          k = 0.0000 0.0000 0.3333 (164448 PWs)   bands (ev):

   -25.6882 -24.7501 -24.5540 -24.4299 -23.7208 -21.6767 -21.2493 -21.1419
   -20.5509 -18.3422 -17.8642 -16.8795 -16.4040 -15.4661 -14.3966 -14.0497
   -13.2038 -13.1771 -12.5515 -12.3688 -12.0048 -11.8375 -11.5115 -11.3547
   -11.0150 -10.6982 -10.6273 -10.3794 -10.2699 -10.0566  -9.8498  -9.7837
    -9.6203  -9.3281  -9.2231  -8.8732  -8.6615  -8.6229  -8.5233  -8.3873
    -8.3849  -8.3115  -8.1981  -8.1662  -7.9401  -7.3780  -7.1999  -7.1243
    -7.0586  -6.3445  -5.5167  -5.2215  -4.9275  -4.7637  -4.6917  -4.5226
    -4.4633  -4.2103  -3.7685  -1.5043  -0.7381  -0.4031   0.0720   0.3273
     0.7515   0.9566   1.0444   1.1863   1.2750   1.4312   1.4897   1.6573
     1.7028   1.8233   1.9367   2.0952   2.2192   2.2875   2.4366   2.4851
     2.5520   2.6580   2.7613   2.8760   2.9622   3.0095   3.0694   3.2481
     3.2987   3.4033   3.5276   3.6301   3.7372   3.7623   3.8898   3.9298
     4.0159   4.0725   4.1103   4.1890

     occupation numbers 
     1.0000   1.0000   1.0000   1.0000   1.0000   1.0000   1.0000   1.0000
     1.0000   1.0000   1.0000   1.0000   1.0000   1.0000   1.0000   1.0000
     1.0000   1.0000   1.0000   1.0000   1.0000   1.0000   1.0000   1.0000
     1.0000   1.0000   1.0000   1.0000   1.0000   1.0000   1.0000   1.0000
     1.0000   1.0000   1.0000   1.0000   1.0000   1.0000   1.0000   1.0000
     1.0000   1.0000   1.0000   1.0000   1.0000   1.0000   1.0000   1.0000
     1.0000   1.0000   1.0000   1.0000   1.0000   1.0000   1.0000   1.0000
     1.0000   1.0000   1.0000   0.0000   0.0000   0.0000   0.0000   0.0000
     0.0000   0.0000   0.0000   0.0000   0.0000   0.0000   0.0000   0.0000
     0.0000   0.0000   0.0000   0.0000   0.0000   0.0000   0.0000   0.0000
     0.0000   0.0000   0.0000   0.0000   0.0000   0.0000   0.0000   0.0000
     0.0000   0.0000   0.0000   0.0000   0.0000   0.0000   0.0000   0.0000
     0.0000   0.0000   0.0000   0.0000

          k = 0.0000 0.0000-0.5000 (164316 PWs)   bands (ev):

   -25.6882 -24.7501 -24.5540 -24.4299 -23.7208 -21.6767 -21.2493 -21.1419
   -20.5509 -18.3422 -17.8642 -16.8795 -16.4040 -15.4661 -14.3966 -14.0497
   -13.2038 -13.1771 -12.5515 -12.3688 -12.0048 -11.8375 -11.5115 -11.3547
   -11.0150 -10.6982 -10.6273 -10.3794 -10.2699 -10.0566  -9.8498  -9.7837
    -9.6203  -9.3281  -9.2231  -8.8732  -8.6616  -8.6229  -8.5233  -8.3874
    -8.3848  -8.3115  -8.1981  -8.1662  -7.9400  -7.3780  -7.2000  -7.1243
    -7.0586  -6.3445  -5.5167  -5.2214  -4.9275  -4.7637  -4.6917  -4.5226
    -4.4633  -4.2103  -3.7685  -1.5043  -0.7381  -0.4030   0.1237   0.2451
     0.7551   0.9756   1.0708   1.2576   1.2869   1.3625   1.4300   1.6015
     1.7275   1.8693   1.9679   2.0780   2.2084   2.2538   2.3941   2.5322
     2.5491   2.6141   2.8294   2.9539   2.9739   3.1076   3.1187   3.1701
     3.2790   3.3540   3.4850   3.6074   3.7300   3.7950   3.8680   3.9429
     4.0117   4.0633   4.1918   4.2176

     occupation numbers 
     1.0000   1.0000   1.0000   1.0000   1.0000   1.0000   1.0000   1.0000
     1.0000   1.0000   1.0000   1.0000   1.0000   1.0000   1.0000   1.0000
     1.0000   1.0000   1.0000   1.0000   1.0000   1.0000   1.0000   1.0000
     1.0000   1.0000   1.0000   1.0000   1.0000   1.0000   1.0000   1.0000
     1.0000   1.0000   1.0000   1.0000   1.0000   1.0000   1.0000   1.0000
     1.0000   1.0000   1.0000   1.0000   1.0000   1.0000   1.0000   1.0000
     1.0000   1.0000   1.0000   1.0000   1.0000   1.0000   1.0000   1.0000
     1.0000   1.0000   1.0000   0.0000   0.0000   0.0000   0.0000   0.0000
     0.0000   0.0000   0.0000   0.0000   0.0000   0.0000   0.0000   0.0000
     0.0000   0.0000   0.0000   0.0000   0.0000   0.0000   0.0000   0.0000
     0.0000   0.0000   0.0000   0.0000   0.0000   0.0000   0.0000   0.0000
     0.0000   0.0000   0.0000   0.0000   0.0000   0.0000   0.0000   0.0000
     0.0000   0.0000   0.0000   0.0000

          k = 0.0000 0.1667 0.1667 (164348 PWs)   bands (ev):

   -25.6882 -24.7501 -24.5540 -24.4299 -23.7208 -21.6767 -21.2493 -21.1419
   -20.5509 -18.3422 -17.8642 -16.8795 -16.4041 -15.4661 -14.3966 -14.0497
   -13.2038 -13.1771 -12.5515 -12.3688 -12.0049 -11.8375 -11.5115 -11.3547
   -11.0150 -10.6983 -10.6273 -10.3794 -10.2698 -10.0566  -9.8497  -9.7838
    -9.6202  -9.3282  -9.2232  -8.8736  -8.6611  -8.6231  -8.5234  -8.3881
    -8.3839  -8.3114  -8.1982  -8.1661  -7.9403  -7.3780  -7.1997  -7.1245
    -7.0584  -6.3446  -5.5167  -5.2215  -4.9275  -4.7636  -4.6917  -4.5226
    -4.4627  -4.2109  -3.7685  -1.5044  -0.7376  -0.4031   0.0330   0.4597
     0.7077   0.8834   1.0015   1.1251   1.2598   1.5163   1.5442   1.6886
     1.7775   1.8157   1.9584   1.9916   2.2288   2.2697   2.4557   2.5031
     2.5758   2.6746   2.7494   2.8292   2.8981   3.0552   3.1503   3.2262
     3.2728   3.4275   3.5082   3.5349   3.6552   3.7785   3.8387   3.9129
     3.9791   4.0239   4.0908   4.1897

     occupation numbers 
     1.0000   1.0000   1.0000   1.0000   1.0000   1.0000   1.0000   1.0000
     1.0000   1.0000   1.0000   1.0000   1.0000   1.0000   1.0000   1.0000
     1.0000   1.0000   1.0000   1.0000   1.0000   1.0000   1.0000   1.0000
     1.0000   1.0000   1.0000   1.0000   1.0000   1.0000   1.0000   1.0000
     1.0000   1.0000   1.0000   1.0000   1.0000   1.0000   1.0000   1.0000
     1.0000   1.0000   1.0000   1.0000   1.0000   1.0000   1.0000   1.0000
     1.0000   1.0000   1.0000   1.0000   1.0000   1.0000   1.0000   1.0000
     1.0000   1.0000   1.0000   0.0000   0.0000   0.0000   0.0000   0.0000
     0.0000   0.0000   0.0000   0.0000   0.0000   0.0000   0.0000   0.0000
     0.0000   0.0000   0.0000   0.0000   0.0000   0.0000   0.0000   0.0000
     0.0000   0.0000   0.0000   0.0000   0.0000   0.0000   0.0000   0.0000
     0.0000   0.0000   0.0000   0.0000   0.0000   0.0000   0.0000   0.0000
     0.0000   0.0000   0.0000   0.0000

          k = 0.0000 0.1667 0.3333 (164415 PWs)   bands (ev):

   -25.6882 -24.7501 -24.5540 -24.4299 -23.7208 -21.6767 -21.2493 -21.1419
   -20.5509 -18.3422 -17.8642 -16.8795 -16.4041 -15.4661 -14.3966 -14.0497
   -13.2038 -13.1771 -12.5515 -12.3688 -12.0048 -11.8375 -11.5115 -11.3547
   -11.0150 -10.6983 -10.6273 -10.3794 -10.2698 -10.0565  -9.8497  -9.7838
    -9.6202  -9.3282  -9.2232  -8.8736  -8.6612  -8.6230  -8.5233  -8.3881
    -8.3840  -8.3114  -8.1982  -8.1661  -7.9401  -7.3781  -7.1998  -7.1245
    -7.0585  -6.3446  -5.5167  -5.2215  -4.9275  -4.7637  -4.6917  -4.5226
    -4.4627  -4.2108  -3.7685  -1.5045  -0.7377  -0.4030   0.0862   0.3316
     0.7365   0.9331   0.9993   1.1818   1.2825   1.4237   1.5393   1.6676
     1.7538   1.8273   1.9054   2.0013   2.2234   2.3584   2.4118   2.5577
     2.5893   2.6737   2.7759   2.8444   2.9770   3.0674   3.1663   3.2005
     3.3359   3.3704   3.4463   3.5897   3.6574   3.7588   3.8442   3.9026
     4.0061   4.0596   4.1220   4.1642

     occupation numbers 
     1.0000   1.0000   1.0000   1.0000   1.0000   1.0000   1.0000   1.0000
     1.0000   1.0000   1.0000   1.0000   1.0000   1.0000   1.0000   1.0000
     1.0000   1.0000   1.0000   1.0000   1.0000   1.0000   1.0000   1.0000
     1.0000   1.0000   1.0000   1.0000   1.0000   1.0000   1.0000   1.0000
     1.0000   1.0000   1.0000   1.0000   1.0000   1.0000   1.0000   1.0000
     1.0000   1.0000   1.0000   1.0000   1.0000   1.0000   1.0000   1.0000
     1.0000   1.0000   1.0000   1.0000   1.0000   1.0000   1.0000   1.0000
     1.0000   1.0000   1.0000   0.0000   0.0000   0.0000   0.0000   0.0000
     0.0000   0.0000   0.0000   0.0000   0.0000   0.0000   0.0000   0.0000
     0.0000   0.0000   0.0000   0.0000   0.0000   0.0000   0.0000   0.0000
     0.0000   0.0000   0.0000   0.0000   0.0000   0.0000   0.0000   0.0000
     0.0000   0.0000   0.0000   0.0000   0.0000   0.0000   0.0000   0.0000
     0.0000   0.0000   0.0000   0.0000

          k = 0.0000 0.1667-0.5000 (164414 PWs)   bands (ev):

   -25.6882 -24.7501 -24.5540 -24.4299 -23.7208 -21.6767 -21.2493 -21.1419
   -20.5509 -18.3422 -17.8642 -16.8795 -16.4041 -15.4661 -14.3966 -14.0497
   -13.2038 -13.1771 -12.5515 -12.3688 -12.0048 -11.8375 -11.5115 -11.3547
   -11.0150 -10.6983 -10.6273 -10.3794 -10.2698 -10.0565  -9.8497  -9.7838
    -9.6202  -9.3282  -9.2232  -8.8736  -8.6612  -8.6230  -8.5233  -8.3883
    -8.3839  -8.3114  -8.1982  -8.1661  -7.9400  -7.3781  -7.1998  -7.1245
    -7.0585  -6.3445  -5.5167  -5.2215  -4.9275  -4.7637  -4.6917  -4.5226
    -4.4627  -4.2108  -3.7685  -1.5045  -0.7377  -0.4029   0.1331   0.2578
     0.7510   0.9588   1.0009   1.2132   1.2369   1.4020   1.5295   1.6526
     1.7914   1.8584   1.8941   2.0295   2.1778   2.3048   2.4233   2.4695
     2.6092   2.7349   2.8509   2.9347   3.0035   3.0890   3.1402   3.1808
     3.2835   3.3555   3.4958   3.5759   3.6297   3.7571   3.8274   3.9055
     3.9943   4.0504   4.1169   4.2085

     occupation numbers 
     1.0000   1.0000   1.0000   1.0000   1.0000   1.0000   1.0000   1.0000
     1.0000   1.0000   1.0000   1.0000   1.0000   1.0000   1.0000   1.0000
     1.0000   1.0000   1.0000   1.0000   1.0000   1.0000   1.0000   1.0000
     1.0000   1.0000   1.0000   1.0000   1.0000   1.0000   1.0000   1.0000
     1.0000   1.0000   1.0000   1.0000   1.0000   1.0000   1.0000   1.0000
     1.0000   1.0000   1.0000   1.0000   1.0000   1.0000   1.0000   1.0000
     1.0000   1.0000   1.0000   1.0000   1.0000   1.0000   1.0000   1.0000
     1.0000   1.0000   1.0000   0.0000   0.0000   0.0000   0.0000   0.0000
     0.0000   0.0000   0.0000   0.0000   0.0000   0.0000   0.0000   0.0000
     0.0000   0.0000   0.0000   0.0000   0.0000   0.0000   0.0000   0.0000
     0.0000   0.0000   0.0000   0.0000   0.0000   0.0000   0.0000   0.0000
     0.0000   0.0000   0.0000   0.0000   0.0000   0.0000   0.0000   0.0000
     0.0000   0.0000   0.0000   0.0000

          k = 0.0000 0.3333 0.3333 (164442 PWs)   bands (ev):

   -25.6882 -24.7501 -24.5540 -24.4299 -23.7208 -21.6767 -21.2493 -21.1419
   -20.5509 -18.3422 -17.8642 -16.8795 -16.4041 -15.4661 -14.3966 -14.0497
   -13.2038 -13.1771 -12.5515 -12.3687 -12.0049 -11.8376 -11.5115 -11.3547
   -11.0150 -10.6984 -10.6273 -10.3794 -10.2696 -10.0565  -9.8495  -9.7841
    -9.6199  -9.3283  -9.2232  -8.8743  -8.6604  -8.6233  -8.5234  -8.3893
    -8.3827  -8.3113  -8.1985  -8.1659  -7.9401  -7.3782  -7.1995  -7.1250
    -7.0583  -6.3446  -5.5167  -5.2215  -4.9275  -4.7637  -4.6916  -4.5226
    -4.4616  -4.2120  -3.7685  -1.5048  -0.7370  -0.4026   0.1127   0.3511
     0.6955   0.8548   0.9949   1.1596   1.2422   1.4784   1.5944   1.6819
     1.7284   1.7709   2.0066   2.0364   2.1976   2.3146   2.4581   2.5589
     2.6545   2.7826   2.8178   2.8806   2.9505   3.0506   3.1752   3.2828
     3.3532   3.4276   3.4419   3.5041   3.5541   3.7084   3.7609   3.8346
     3.8909   4.0039   4.0864   4.1659

     occupation numbers 
     1.0000   1.0000   1.0000   1.0000   1.0000   1.0000   1.0000   1.0000
     1.0000   1.0000   1.0000   1.0000   1.0000   1.0000   1.0000   1.0000
     1.0000   1.0000   1.0000   1.0000   1.0000   1.0000   1.0000   1.0000
     1.0000   1.0000   1.0000   1.0000   1.0000   1.0000   1.0000   1.0000
     1.0000   1.0000   1.0000   1.0000   1.0000   1.0000   1.0000   1.0000
     1.0000   1.0000   1.0000   1.0000   1.0000   1.0000   1.0000   1.0000
     1.0000   1.0000   1.0000   1.0000   1.0000   1.0000   1.0000   1.0000
     1.0000   1.0000   1.0000   0.0000   0.0000   0.0000   0.0000   0.0000
     0.0000   0.0000   0.0000   0.0000   0.0000   0.0000   0.0000   0.0000
     0.0000   0.0000   0.0000   0.0000   0.0000   0.0000   0.0000   0.0000
     0.0000   0.0000   0.0000   0.0000   0.0000   0.0000   0.0000   0.0000
     0.0000   0.0000   0.0000   0.0000   0.0000   0.0000   0.0000   0.0000
     0.0000   0.0000   0.0000   0.0000

          k = 0.0000 0.3333-0.5000 (164480 PWs)   bands (ev):

   -25.6882 -24.7501 -24.5540 -24.4299 -23.7208 -21.6767 -21.2493 -21.1419
   -20.5509 -18.3422 -17.8642 -16.8795 -16.4041 -15.4661 -14.3966 -14.0497
   -13.2038 -13.1771 -12.5515 -12.3687 -12.0049 -11.8376 -11.5115 -11.3547
   -11.0150 -10.6984 -10.6274 -10.3794 -10.2696 -10.0565  -9.8495  -9.7841
    -9.6200  -9.3283  -9.2232  -8.8743  -8.6605  -8.6232  -8.5234  -8.3893
    -8.3827  -8.3113  -8.1985  -8.1659  -7.9400  -7.3783  -7.1996  -7.1250
    -7.0583  -6.3446  -5.5167  -5.2215  -4.9275  -4.7637  -4.6916  -4.5226
    -4.4616  -4.2119  -3.7685  -1.5048  -0.7370  -0.4026   0.1535   0.2877
     0.7283   0.8595   0.9826   1.1128   1.2599   1.4475   1.6336   1.6905
     1.7523   1.8544   1.9043   2.0503   2.1848   2.2542   2.4163   2.6407
     2.6766   2.7891   2.8744   2.9225   2.9851   3.0824   3.1520   3.2514
     3.3040   3.3491   3.4588   3.5099   3.6006   3.7159   3.7551   3.8818
     3.9146   3.9953   4.0568   4.1378

     occupation numbers 
     1.0000   1.0000   1.0000   1.0000   1.0000   1.0000   1.0000   1.0000
     1.0000   1.0000   1.0000   1.0000   1.0000   1.0000   1.0000   1.0000
     1.0000   1.0000   1.0000   1.0000   1.0000   1.0000   1.0000   1.0000
     1.0000   1.0000   1.0000   1.0000   1.0000   1.0000   1.0000   1.0000
     1.0000   1.0000   1.0000   1.0000   1.0000   1.0000   1.0000   1.0000
     1.0000   1.0000   1.0000   1.0000   1.0000   1.0000   1.0000   1.0000
     1.0000   1.0000   1.0000   1.0000   1.0000   1.0000   1.0000   1.0000
     1.0000   1.0000   1.0000   0.0000   0.0000   0.0000   0.0000   0.0000
     0.0000   0.0000   0.0000   0.0000   0.0000   0.0000   0.0000   0.0000
     0.0000   0.0000   0.0000   0.0000   0.0000   0.0000   0.0000   0.0000
     0.0000   0.0000   0.0000   0.0000   0.0000   0.0000   0.0000   0.0000
     0.0000   0.0000   0.0000   0.0000   0.0000   0.0000   0.0000   0.0000
     0.0000   0.0000   0.0000   0.0000

          k = 0.0000-0.5000-0.5000 (164352 PWs)   bands (ev):

   -25.6882 -24.7501 -24.5540 -24.4299 -23.7208 -21.6767 -21.2493 -21.1419
   -20.5509 -18.3422 -17.8642 -16.8795 -16.4041 -15.4661 -14.3965 -14.0497
   -13.2038 -13.1771 -12.5515 -12.3687 -12.0049 -11.8376 -11.5114 -11.3547
   -11.0150 -10.6984 -10.6274 -10.3794 -10.2695 -10.0565  -9.8494  -9.7842
    -9.6198  -9.3284  -9.2233  -8.8746  -8.6601  -8.6234  -8.5234  -8.3897
    -8.3823  -8.3113  -8.1986  -8.1658  -7.9400  -7.3783  -7.1995  -7.1252
    -7.0582  -6.3446  -5.5167  -5.2215  -4.9275  -4.7637  -4.6915  -4.5226
    -4.4610  -4.2125  -3.7685  -1.5049  -0.7366  -0.4024   0.1645   0.3062
     0.7018   0.8284   0.9679   1.0861   1.2824   1.4706   1.6237   1.6917
     1.7243   1.8601   1.9193   2.0902   2.2052   2.2730   2.4425   2.6698
     2.6969   2.7874   2.8399   2.9735   3.0162   3.0238   3.1568   3.2193
     3.2952   3.3597   3.5369   3.5708   3.5896   3.6841   3.7064   3.8255
     3.8550   4.0250   4.0421   4.0520

     occupation numbers 
     1.0000   1.0000   1.0000   1.0000   1.0000   1.0000   1.0000   1.0000
     1.0000   1.0000   1.0000   1.0000   1.0000   1.0000   1.0000   1.0000
     1.0000   1.0000   1.0000   1.0000   1.0000   1.0000   1.0000   1.0000
     1.0000   1.0000   1.0000   1.0000   1.0000   1.0000   1.0000   1.0000
     1.0000   1.0000   1.0000   1.0000   1.0000   1.0000   1.0000   1.0000
     1.0000   1.0000   1.0000   1.0000   1.0000   1.0000   1.0000   1.0000
     1.0000   1.0000   1.0000   1.0000   1.0000   1.0000   1.0000   1.0000
     1.0000   1.0000   1.0000   0.0000   0.0000   0.0000   0.0000   0.0000
     0.0000   0.0000   0.0000   0.0000   0.0000   0.0000   0.0000   0.0000
     0.0000   0.0000   0.0000   0.0000   0.0000   0.0000   0.0000   0.0000
     0.0000   0.0000   0.0000   0.0000   0.0000   0.0000   0.0000   0.0000
     0.0000   0.0000   0.0000   0.0000   0.0000   0.0000   0.0000   0.0000
     0.0000   0.0000   0.0000   0.0000

          k = 0.1667 0.1667 0.1667 (164463 PWs)   bands (ev):

   -25.6882 -24.7501 -24.5540 -24.4299 -23.7208 -21.6767 -21.2493 -21.1419
   -20.5509 -18.3422 -17.8642 -16.8795 -16.4041 -15.4661 -14.3966 -14.0497
   -13.2038 -13.1771 -12.5515 -12.3688 -12.0049 -11.8375 -11.5115 -11.3547
   -11.0150 -10.6983 -10.6273 -10.3794 -10.2698 -10.0566  -9.8497  -9.7838
    -9.6202  -9.3282  -9.2232  -8.8736  -8.6611  -8.6231  -8.5234  -8.3881
    -8.3839  -8.3114  -8.1982  -8.1661  -7.9403  -7.3780  -7.1997  -7.1245
    -7.0584  -6.3446  -5.5166  -5.2215  -4.9277  -4.7636  -4.6917  -4.5226
    -4.4627  -4.2108  -3.7685  -1.5045  -0.7376  -0.4025   0.0487   0.4614
     0.7313   0.7540   1.0247   1.1508   1.2915   1.4764   1.5860   1.6260
     1.7534   1.8784   2.0057   2.0704   2.1830   2.2784   2.4183   2.4656
     2.6160   2.6493   2.7726   2.9155   2.9356   3.0363   3.1310   3.2605
     3.2670   3.3690   3.4336   3.5496   3.6981   3.7469   3.8163   3.9136
     3.9333   4.0303   4.1041   4.1283

     occupation numbers 
     1.0000   1.0000   1.0000   1.0000   1.0000   1.0000   1.0000   1.0000
     1.0000   1.0000   1.0000   1.0000   1.0000   1.0000   1.0000   1.0000
     1.0000   1.0000   1.0000   1.0000   1.0000   1.0000   1.0000   1.0000
     1.0000   1.0000   1.0000   1.0000   1.0000   1.0000   1.0000   1.0000
     1.0000   1.0000   1.0000   1.0000   1.0000   1.0000   1.0000   1.0000
     1.0000   1.0000   1.0000   1.0000   1.0000   1.0000   1.0000   1.0000
     1.0000   1.0000   1.0000   1.0000   1.0000   1.0000   1.0000   1.0000
     1.0000   1.0000   1.0000   0.0000   0.0000   0.0000   0.0000   0.0000
     0.0000   0.0000   0.0000   0.0000   0.0000   0.0000   0.0000   0.0000
     0.0000   0.0000   0.0000   0.0000   0.0000   0.0000   0.0000   0.0000
     0.0000   0.0000   0.0000   0.0000   0.0000   0.0000   0.0000   0.0000
     0.0000   0.0000   0.0000   0.0000   0.0000   0.0000   0.0000   0.0000
     0.0000   0.0000   0.0000   0.0000

          k = 0.1667 0.1667 0.3333 (164416 PWs)   bands (ev):

   -25.6882 -24.7501 -24.5540 -24.4299 -23.7208 -21.6767 -21.2493 -21.1419
   -20.5509 -18.3422 -17.8642 -16.8795 -16.4041 -15.4661 -14.3966 -14.0497
   -13.2038 -13.1771 -12.5515 -12.3688 -12.0048 -11.8375 -11.5115 -11.3547
   -11.0150 -10.6983 -10.6273 -10.3794 -10.2698 -10.0566  -9.8497  -9.7838
    -9.6202  -9.3282  -9.2232  -8.8736  -8.6612  -8.6231  -8.5233  -8.3881
    -8.3840  -8.3114  -8.1982  -8.1661  -7.9401  -7.3781  -7.1998  -7.1245
    -7.0585  -6.3445  -5.5166  -5.2215  -4.9277  -4.7636  -4.6917  -4.5226
    -4.4627  -4.2108  -3.7685  -1.5045  -0.7378  -0.4025   0.1008   0.3462
     0.7299   0.8071   1.0461   1.1550   1.2744   1.4821   1.5615   1.6534
     1.7553   1.8548   1.9582   2.0748   2.1650   2.2898   2.3955   2.5569
     2.6254   2.6857   2.7939   2.8972   2.9675   3.0340   3.1493   3.2766
     3.2983   3.3771   3.4620   3.5675   3.7008   3.7248   3.7744   3.9125
     3.9645   4.0420   4.0953   4.1505

     occupation numbers 
     1.0000   1.0000   1.0000   1.0000   1.0000   1.0000   1.0000   1.0000
     1.0000   1.0000   1.0000   1.0000   1.0000   1.0000   1.0000   1.0000
     1.0000   1.0000   1.0000   1.0000   1.0000   1.0000   1.0000   1.0000
     1.0000   1.0000   1.0000   1.0000   1.0000   1.0000   1.0000   1.0000
     1.0000   1.0000   1.0000   1.0000   1.0000   1.0000   1.0000   1.0000
     1.0000   1.0000   1.0000   1.0000   1.0000   1.0000   1.0000   1.0000
     1.0000   1.0000   1.0000   1.0000   1.0000   1.0000   1.0000   1.0000
     1.0000   1.0000   1.0000   0.0000   0.0000   0.0000   0.0000   0.0000
     0.0000   0.0000   0.0000   0.0000   0.0000   0.0000   0.0000   0.0000
     0.0000   0.0000   0.0000   0.0000   0.0000   0.0000   0.0000   0.0000
     0.0000   0.0000   0.0000   0.0000   0.0000   0.0000   0.0000   0.0000
     0.0000   0.0000   0.0000   0.0000   0.0000   0.0000   0.0000   0.0000
     0.0000   0.0000   0.0000   0.0000

          k = 0.1667 0.1667-0.5000 (164532 PWs)   bands (ev):

   -25.6882 -24.7501 -24.5540 -24.4299 -23.7208 -21.6767 -21.2493 -21.1419
   -20.5509 -18.3422 -17.8642 -16.8795 -16.4041 -15.4661 -14.3966 -14.0497
   -13.2038 -13.1771 -12.5515 -12.3688 -12.0048 -11.8375 -11.5115 -11.3547
   -11.0150 -10.6983 -10.6273 -10.3794 -10.2698 -10.0565  -9.8497  -9.7838
    -9.6202  -9.3282  -9.2232  -8.8736  -8.6612  -8.6230  -8.5233  -8.3883
    -8.3839  -8.3114  -8.1982  -8.1661  -7.9400  -7.3781  -7.1998  -7.1245
    -7.0585  -6.3445  -5.5166  -5.2215  -4.9277  -4.7637  -4.6917  -4.5226
    -4.4627  -4.2108  -3.7685  -1.5046  -0.7379  -0.4027   0.1437   0.2797
     0.7190   0.8585   1.0418   1.1609   1.2359   1.4942   1.5410   1.6848
     1.7774   1.8538   1.9406   2.0290   2.1559   2.3291   2.3683   2.5116
     2.6372   2.7519   2.8035   2.9284   3.0037   3.0733   3.1872   3.2137
     3.3077   3.3621   3.5002   3.5356   3.6517   3.7384   3.8067   3.9050
     3.9830   4.0215   4.1256   4.1646

     occupation numbers 
     1.0000   1.0000   1.0000   1.0000   1.0000   1.0000   1.0000   1.0000
     1.0000   1.0000   1.0000   1.0000   1.0000   1.0000   1.0000   1.0000
     1.0000   1.0000   1.0000   1.0000   1.0000   1.0000   1.0000   1.0000
     1.0000   1.0000   1.0000   1.0000   1.0000   1.0000   1.0000   1.0000
     1.0000   1.0000   1.0000   1.0000   1.0000   1.0000   1.0000   1.0000
     1.0000   1.0000   1.0000   1.0000   1.0000   1.0000   1.0000   1.0000
     1.0000   1.0000   1.0000   1.0000   1.0000   1.0000   1.0000   1.0000
     1.0000   1.0000   1.0000   0.0000   0.0000   0.0000   0.0000   0.0000
     0.0000   0.0000   0.0000   0.0000   0.0000   0.0000   0.0000   0.0000
     0.0000   0.0000   0.0000   0.0000   0.0000   0.0000   0.0000   0.0000
     0.0000   0.0000   0.0000   0.0000   0.0000   0.0000   0.0000   0.0000
     0.0000   0.0000   0.0000   0.0000   0.0000   0.0000   0.0000   0.0000
     0.0000   0.0000   0.0000   0.0000

          k = 0.1667 0.3333 0.3333 (164430 PWs)   bands (ev):

   -25.6882 -24.7501 -24.5540 -24.4299 -23.7208 -21.6767 -21.2493 -21.1419
   -20.5509 -18.3422 -17.8642 -16.8795 -16.4041 -15.4661 -14.3966 -14.0497
   -13.2038 -13.1771 -12.5515 -12.3687 -12.0049 -11.8376 -11.5114 -11.3547
   -11.0150 -10.6984 -10.6274 -10.3794 -10.2696 -10.0565  -9.8495  -9.7841
    -9.6200  -9.3283  -9.2232  -8.8743  -8.6604  -8.6233  -8.5234  -8.3893
    -8.3827  -8.3113  -8.1985  -8.1659  -7.9401  -7.3782  -7.1995  -7.1250
    -7.0583  -6.3446  -5.5166  -5.2215  -4.9277  -4.7637  -4.6916  -4.5226
    -4.4616  -4.2119  -3.7685  -1.5049  -0.7370  -0.4023   0.1272   0.3670
     0.7134   0.7730   0.9734   1.1366   1.2185   1.4683   1.5743   1.6886
     1.8319   1.8563   2.0015   2.0881   2.2184   2.3322   2.4631   2.5339
     2.6238   2.7031   2.8063   2.9244   2.9788   3.0609   3.1205   3.2514
     3.3725   3.4060   3.4390   3.5296   3.5775   3.6847   3.7618   3.7873
     3.9198   3.9637   4.0705   4.1028

     occupation numbers 
     1.0000   1.0000   1.0000   1.0000   1.0000   1.0000   1.0000   1.0000
     1.0000   1.0000   1.0000   1.0000   1.0000   1.0000   1.0000   1.0000
     1.0000   1.0000   1.0000   1.0000   1.0000   1.0000   1.0000   1.0000
     1.0000   1.0000   1.0000   1.0000   1.0000   1.0000   1.0000   1.0000
     1.0000   1.0000   1.0000   1.0000   1.0000   1.0000   1.0000   1.0000
     1.0000   1.0000   1.0000   1.0000   1.0000   1.0000   1.0000   1.0000
     1.0000   1.0000   1.0000   1.0000   1.0000   1.0000   1.0000   1.0000
     1.0000   1.0000   1.0000   0.0000   0.0000   0.0000   0.0000   0.0000
     0.0000   0.0000   0.0000   0.0000   0.0000   0.0000   0.0000   0.0000
     0.0000   0.0000   0.0000   0.0000   0.0000   0.0000   0.0000   0.0000
     0.0000   0.0000   0.0000   0.0000   0.0000   0.0000   0.0000   0.0000
     0.0000   0.0000   0.0000   0.0000   0.0000   0.0000   0.0000   0.0000
     0.0000   0.0000   0.0000   0.0000

          k = 0.1667 0.3333-0.5000 (164446 PWs)   bands (ev):

   -25.6882 -24.7501 -24.5540 -24.4299 -23.7208 -21.6767 -21.2493 -21.1419
   -20.5509 -18.3422 -17.8642 -16.8795 -16.4041 -15.4661 -14.3966 -14.0497
   -13.2038 -13.1771 -12.5515 -12.3687 -12.0049 -11.8376 -11.5115 -11.3547
   -11.0150 -10.6984 -10.6274 -10.3794 -10.2696 -10.0565  -9.8495  -9.7841
    -9.6200  -9.3283  -9.2232  -8.8743  -8.6605  -8.6232  -8.5234  -8.3893
    -8.3827  -8.3113  -8.1985  -8.1659  -7.9400  -7.3783  -7.1996  -7.1250
    -7.0583  -6.3446  -5.5166  -5.2215  -4.9277  -4.7637  -4.6916  -4.5226
    -4.4616  -4.2119  -3.7685  -1.5049  -0.7371  -0.4024   0.1638   0.3104
     0.7222   0.8029   0.9701   1.1084   1.1896   1.4781   1.5816   1.7588
     1.7988   1.8640   1.9728   2.0607   2.2245   2.2971   2.4680   2.5534
     2.6702   2.7882   2.8394   2.9240   2.9560   3.0911   3.1461   3.1928
     3.3232   3.3448   3.4584   3.5596   3.5945   3.6888   3.7874   3.8510
     3.8760   3.9921   4.0415   4.0897

     occupation numbers 
     1.0000   1.0000   1.0000   1.0000   1.0000   1.0000   1.0000   1.0000
     1.0000   1.0000   1.0000   1.0000   1.0000   1.0000   1.0000   1.0000
     1.0000   1.0000   1.0000   1.0000   1.0000   1.0000   1.0000   1.0000
     1.0000   1.0000   1.0000   1.0000   1.0000   1.0000   1.0000   1.0000
     1.0000   1.0000   1.0000   1.0000   1.0000   1.0000   1.0000   1.0000
     1.0000   1.0000   1.0000   1.0000   1.0000   1.0000   1.0000   1.0000
     1.0000   1.0000   1.0000   1.0000   1.0000   1.0000   1.0000   1.0000
     1.0000   1.0000   1.0000   0.0000   0.0000   0.0000   0.0000   0.0000
     0.0000   0.0000   0.0000   0.0000   0.0000   0.0000   0.0000   0.0000
     0.0000   0.0000   0.0000   0.0000   0.0000   0.0000   0.0000   0.0000
     0.0000   0.0000   0.0000   0.0000   0.0000   0.0000   0.0000   0.0000
     0.0000   0.0000   0.0000   0.0000   0.0000   0.0000   0.0000   0.0000
     0.0000   0.0000   0.0000   0.0000

          k = 0.1667-0.5000-0.5000 (164412 PWs)   bands (ev):

   -25.6882 -24.7501 -24.5540 -24.4299 -23.7208 -21.6767 -21.2493 -21.1419
   -20.5509 -18.3422 -17.8642 -16.8795 -16.4041 -15.4661 -14.3965 -14.0497
   -13.2038 -13.1771 -12.5515 -12.3687 -12.0049 -11.8376 -11.5114 -11.3547
   -11.0150 -10.6984 -10.6274 -10.3794 -10.2695 -10.0565  -9.8494  -9.7842
    -9.6198  -9.3284  -9.2233  -8.8746  -8.6601  -8.6234  -8.5234  -8.3897
    -8.3823  -8.3113  -8.1986  -8.1658  -7.9400  -7.3783  -7.1995  -7.1252
    -7.0582  -6.3446  -5.5166  -5.2215  -4.9277  -4.7637  -4.6915  -4.5226
    -4.4610  -4.2125  -3.7685  -1.5051  -0.7368  -0.4023   0.1739   0.3280
     0.7092   0.7864   0.9604   1.0673   1.2071   1.3995   1.6228   1.7260
     1.8234   1.8920   1.9530   2.1524   2.2231   2.3588   2.4823   2.6412
     2.6931   2.7639   2.8409   2.9171   2.9859   3.0629   3.1346   3.1673
     3.2833   3.3696   3.4252   3.5191   3.5971   3.6656   3.7403   3.7996
     3.8656   3.9146   4.0065   4.0864

     occupation numbers 
     1.0000   1.0000   1.0000   1.0000   1.0000   1.0000   1.0000   1.0000
     1.0000   1.0000   1.0000   1.0000   1.0000   1.0000   1.0000   1.0000
     1.0000   1.0000   1.0000   1.0000   1.0000   1.0000   1.0000   1.0000
     1.0000   1.0000   1.0000   1.0000   1.0000   1.0000   1.0000   1.0000
     1.0000   1.0000   1.0000   1.0000   1.0000   1.0000   1.0000   1.0000
     1.0000   1.0000   1.0000   1.0000   1.0000   1.0000   1.0000   1.0000
     1.0000   1.0000   1.0000   1.0000   1.0000   1.0000   1.0000   1.0000
     1.0000   1.0000   1.0000   0.0000   0.0000   0.0000   0.0000   0.0000
     0.0000   0.0000   0.0000   0.0000   0.0000   0.0000   0.0000   0.0000
     0.0000   0.0000   0.0000   0.0000   0.0000   0.0000   0.0000   0.0000
     0.0000   0.0000   0.0000   0.0000   0.0000   0.0000   0.0000   0.0000
     0.0000   0.0000   0.0000   0.0000   0.0000   0.0000   0.0000   0.0000
     0.0000   0.0000   0.0000   0.0000

          k = 0.3333 0.3333 0.3333 (164442 PWs)   bands (ev):

   -25.6882 -24.7501 -24.5540 -24.4299 -23.7208 -21.6767 -21.2493 -21.1419
   -20.5509 -18.3422 -17.8642 -16.8795 -16.4041 -15.4661 -14.3966 -14.0497
   -13.2038 -13.1771 -12.5515 -12.3687 -12.0049 -11.8376 -11.5114 -11.3547
   -11.0149 -10.6984 -10.6274 -10.3794 -10.2696 -10.0565  -9.8495  -9.7841
    -9.6200  -9.3284  -9.2232  -8.8743  -8.6604  -8.6233  -8.5234  -8.3892
    -8.3827  -8.3113  -8.1984  -8.1659  -7.9401  -7.3782  -7.1995  -7.1250
    -7.0583  -6.3446  -5.5163  -5.2215  -4.9281  -4.7637  -4.6916  -4.5226
    -4.4616  -4.2119  -3.7684  -1.5051  -0.7372  -0.4019   0.1572   0.4147
     0.6144   0.7642   0.9695   1.1031   1.1690   1.3476   1.5892   1.7245
     1.8799   1.9805   2.1222   2.1839   2.2466   2.3800   2.4379   2.5725
     2.6363   2.6897   2.8035   2.8736   2.9602   3.0740   3.1307   3.1858
     3.2886   3.3022   3.4004   3.5389   3.5986   3.6380   3.7311   3.8299
     3.8705   3.9845   4.0098   4.0748

     occupation numbers 
     1.0000   1.0000   1.0000   1.0000   1.0000   1.0000   1.0000   1.0000
     1.0000   1.0000   1.0000   1.0000   1.0000   1.0000   1.0000   1.0000
     1.0000   1.0000   1.0000   1.0000   1.0000   1.0000   1.0000   1.0000
     1.0000   1.0000   1.0000   1.0000   1.0000   1.0000   1.0000   1.0000
     1.0000   1.0000   1.0000   1.0000   1.0000   1.0000   1.0000   1.0000
     1.0000   1.0000   1.0000   1.0000   1.0000   1.0000   1.0000   1.0000
     1.0000   1.0000   1.0000   1.0000   1.0000   1.0000   1.0000   1.0000
     1.0000   1.0000   1.0000   0.0000   0.0000   0.0000   0.0000   0.0000
     0.0000   0.0000   0.0000   0.0000   0.0000   0.0000   0.0000   0.0000
     0.0000   0.0000   0.0000   0.0000   0.0000   0.0000   0.0000   0.0000
     0.0000   0.0000   0.0000   0.0000   0.0000   0.0000   0.0000   0.0000
     0.0000   0.0000   0.0000   0.0000   0.0000   0.0000   0.0000   0.0000
     0.0000   0.0000   0.0000   0.0000

          k = 0.3333 0.3333-0.5000 (164428 PWs)   bands (ev):

   -25.6882 -24.7501 -24.5540 -24.4299 -23.7208 -21.6767 -21.2493 -21.1419
   -20.5509 -18.3422 -17.8642 -16.8795 -16.4041 -15.4661 -14.3966 -14.0497
   -13.2038 -13.1771 -12.5515 -12.3687 -12.0049 -11.8376 -11.5114 -11.3547
   -11.0149 -10.6983 -10.6274 -10.3794 -10.2696 -10.0565  -9.8495  -9.7841
    -9.6200  -9.3284  -9.2232  -8.8743  -8.6605  -8.6232  -8.5234  -8.3893
    -8.3827  -8.3113  -8.1985  -8.1659  -7.9400  -7.3783  -7.1996  -7.1250
    -7.0583  -6.3446  -5.5163  -5.2215  -4.9281  -4.7637  -4.6916  -4.5226
    -4.4616  -4.2119  -3.7684  -1.5051  -0.7374  -0.4021   0.1843   0.3761
     0.6123   0.7982   0.9735   1.0779   1.1396   1.3060   1.6457   1.7553
     1.8685   1.9486   2.1241   2.1682   2.2894   2.3533   2.4782   2.5689
     2.6999   2.7385   2.7982   2.8781   2.9620   3.0845   3.1354   3.1824
     3.2397   3.2948   3.4027   3.4654   3.5982   3.6526   3.7042   3.7969
     3.8755   3.9329   4.0345   4.0879

     occupation numbers 
     1.0000   1.0000   1.0000   1.0000   1.0000   1.0000   1.0000   1.0000
     1.0000   1.0000   1.0000   1.0000   1.0000   1.0000   1.0000   1.0000
     1.0000   1.0000   1.0000   1.0000   1.0000   1.0000   1.0000   1.0000
     1.0000   1.0000   1.0000   1.0000   1.0000   1.0000   1.0000   1.0000
     1.0000   1.0000   1.0000   1.0000   1.0000   1.0000   1.0000   1.0000
     1.0000   1.0000   1.0000   1.0000   1.0000   1.0000   1.0000   1.0000
     1.0000   1.0000   1.0000   1.0000   1.0000   1.0000   1.0000   1.0000
     1.0000   1.0000   1.0000   0.0000   0.0000   0.0000   0.0000   0.0000
     0.0000   0.0000   0.0000   0.0000   0.0000   0.0000   0.0000   0.0000
     0.0000   0.0000   0.0000   0.0000   0.0000   0.0000   0.0000   0.0000
     0.0000   0.0000   0.0000   0.0000   0.0000   0.0000   0.0000   0.0000
     0.0000   0.0000   0.0000   0.0000   0.0000   0.0000   0.0000   0.0000
     0.0000   0.0000   0.0000   0.0000

          k = 0.3333-0.5000-0.5000 (164428 PWs)   bands (ev):

   -25.6882 -24.7501 -24.5540 -24.4299 -23.7208 -21.6767 -21.2493 -21.1419
   -20.5509 -18.3422 -17.8642 -16.8795 -16.4041 -15.4661 -14.3965 -14.0497
   -13.2038 -13.1771 -12.5515 -12.3687 -12.0049 -11.8376 -11.5114 -11.3547
   -11.0149 -10.6984 -10.6274 -10.3794 -10.2695 -10.0565  -9.8494  -9.7842
    -9.6198  -9.3285  -9.2232  -8.8746  -8.6601  -8.6234  -8.5234  -8.3897
    -8.3823  -8.3113  -8.1986  -8.1658  -7.9400  -7.3783  -7.1994  -7.1252
    -7.0582  -6.3446  -5.5163  -5.2215  -4.9281  -4.7637  -4.6916  -4.5226
    -4.4610  -4.2124  -3.7684  -1.5053  -0.7370  -0.4020   0.1940   0.3925
     0.6291   0.7782   0.9552   1.0771   1.1032   1.2239   1.6080   1.7700
     1.9051   2.0504   2.1020   2.2524   2.3104   2.4549   2.5454   2.5680
[...]
    -7.0583  -6.3446  -5.5163  -5.2215  -4.9281  -4.7637  -4.6916  -4.5226
    -4.4616  -4.2119  -3.7684  -1.5051  -0.7373  -0.4018   0.1507   0.4197
     0.6265   0.7818   0.9670   1.0620   1.1859   1.3183   1.6164   1.7497
     1.8566   1.9670   2.0004   2.2268   2.3299   2.3693   2.4925   2.6042
     2.6422   2.7295   2.8064   2.8510   2.9578   3.0255   3.1349   3.2120
     3.2830   3.3123   3.3817   3.4768   3.5240   3.6081   3.6674   3.8456
     3.9083   3.9629   4.0166   4.1109

     occupation numbers 
     1.0000   1.0000   1.0000   1.0000   1.0000   1.0000   1.0000   1.0000
     1.0000   1.0000   1.0000   1.0000   1.0000   1.0000   1.0000   1.0000
     1.0000   1.0000   1.0000   1.0000   1.0000   1.0000   1.0000   1.0000
     1.0000   1.0000   1.0000   1.0000   1.0000   1.0000   1.0000   1.0000
     1.0000   1.0000   1.0000   1.0000   1.0000   1.0000   1.0000   1.0000
     1.0000   1.0000   1.0000   1.0000   1.0000   1.0000   1.0000   1.0000
     1.0000   1.0000   1.0000   1.0000   1.0000   1.0000   1.0000   1.0000
     1.0000   1.0000   1.0000   0.0000   0.0000   0.0000   0.0000   0.0000
     0.0000   0.0000   0.0000   0.0000   0.0000   0.0000   0.0000   0.0000
     0.0000   0.0000   0.0000   0.0000   0.0000   0.0000   0.0000   0.0000
     0.0000   0.0000   0.0000   0.0000   0.0000   0.0000   0.0000   0.0000
     0.0000   0.0000   0.0000   0.0000   0.0000   0.0000   0.0000   0.0000
     0.0000   0.0000   0.0000   0.0000

          k = 0.3333-0.3333-0.3333 (164442 PWs)   bands (ev):

   -25.6882 -24.7501 -24.5540 -24.4299 -23.7208 -21.6767 -21.2493 -21.1419
   -20.5509 -18.3422 -17.8642 -16.8795 -16.4041 -15.4661 -14.3966 -14.0497
   -13.2038 -13.1771 -12.5515 -12.3687 -12.0049 -11.8376 -11.5114 -11.3547
   -11.0150 -10.6984 -10.6274 -10.3794 -10.2696 -10.0565  -9.8495  -9.7841
    -9.6199  -9.3284  -9.2232  -8.8743  -8.6604  -8.6233  -8.5234  -8.3892
    -8.3827  -8.3113  -8.1984  -8.1659  -7.9401  -7.3782  -7.1995  -7.1250
    -7.0583  -6.3446  -5.5163  -5.2215  -4.9281  -4.7637  -4.6916  -4.5226
    -4.4616  -4.2119  -3.7684  -1.5051  -0.7373  -0.4022   0.1542   0.4109
     0.6077   0.8008   0.9621   1.1330   1.2035   1.2734   1.5533   1.7248
     1.8542   1.9971   2.0646   2.1866   2.2852   2.3838   2.4348   2.6010
     2.6286   2.7989   2.8344   2.9188   2.9757   3.0625   3.1027   3.1867
     3.2337   3.3285   3.4135   3.4647   3.6025   3.6388   3.6864   3.7783
     3.9020   3.9505   4.0121   4.0406

     occupation numbers 
     1.0000   1.0000   1.0000   1.0000   1.0000   1.0000   1.0000   1.0000
     1.0000   1.0000   1.0000   1.0000   1.0000   1.0000   1.0000   1.0000
     1.0000   1.0000   1.0000   1.0000   1.0000   1.0000   1.0000   1.0000
     1.0000   1.0000   1.0000   1.0000   1.0000   1.0000   1.0000   1.0000
     1.0000   1.0000   1.0000   1.0000   1.0000   1.0000   1.0000   1.0000
     1.0000   1.0000   1.0000   1.0000   1.0000   1.0000   1.0000   1.0000
     1.0000   1.0000   1.0000   1.0000   1.0000   1.0000   1.0000   1.0000
     1.0000   1.0000   1.0000   0.0000   0.0000   0.0000   0.0000   0.0000
     0.0000   0.0000   0.0000   0.0000   0.0000   0.0000   0.0000   0.0000
     0.0000   0.0000   0.0000   0.0000   0.0000   0.0000   0.0000   0.0000
     0.0000   0.0000   0.0000   0.0000   0.0000   0.0000   0.0000   0.0000
     0.0000   0.0000   0.0000   0.0000   0.0000   0.0000   0.0000   0.0000
     0.0000   0.0000   0.0000   0.0000

          k =-0.3333 0.3333 0.5000 (164428 PWs)   bands (ev):

   -25.6882 -24.7501 -24.5540 -24.4299 -23.7208 -21.6767 -21.2493 -21.1419
   -20.5509 -18.3422 -17.8642 -16.8795 -16.4041 -15.4661 -14.3966 -14.0497
   -13.2038 -13.1771 -12.5515 -12.3687 -12.0049 -11.8376 -11.5114 -11.3547
   -11.0150 -10.6983 -10.6274 -10.3794 -10.2696 -10.0565  -9.8495  -9.7841
    -9.6199  -9.3284  -9.2232  -8.8743  -8.6605  -8.6232  -8.5234  -8.3893
    -8.3827  -8.3113  -8.1985  -8.1659  -7.9400  -7.3783  -7.1996  -7.1250
    -7.0583  -6.3446  -5.5163  -5.2215  -4.9281  -4.7637  -4.6916  -4.5226
    -4.4616  -4.2119  -3.7684  -1.5052  -0.7374  -0.4020   0.1827   0.3713
     0.6174   0.8126   0.9974   1.0865   1.1320   1.2464   1.6504   1.7303
     1.9017   1.9676   2.0185   2.1909   2.3125   2.4048   2.4884   2.6316
     2.6714   2.7523   2.8070   2.9291   2.9682   3.0603   3.0923   3.2037
     3.2703   3.3108   3.3485   3.4836   3.4989   3.6131   3.6401   3.7843
     3.8680   3.9597   4.0152   4.0917

     occupation numbers 
     1.0000   1.0000   1.0000   1.0000   1.0000   1.0000   1.0000   1.0000
     1.0000   1.0000   1.0000   1.0000   1.0000   1.0000   1.0000   1.0000
     1.0000   1.0000   1.0000   1.0000   1.0000   1.0000   1.0000   1.0000
     1.0000   1.0000   1.0000   1.0000   1.0000   1.0000   1.0000   1.0000
     1.0000   1.0000   1.0000   1.0000   1.0000   1.0000   1.0000   1.0000
     1.0000   1.0000   1.0000   1.0000   1.0000   1.0000   1.0000   1.0000
     1.0000   1.0000   1.0000   1.0000   1.0000   1.0000   1.0000   1.0000
     1.0000   1.0000   1.0000   0.0000   0.0000   0.0000   0.0000   0.0000
     0.0000   0.0000   0.0000   0.0000   0.0000   0.0000   0.0000   0.0000
     0.0000   0.0000   0.0000   0.0000   0.0000   0.0000   0.0000   0.0000
     0.0000   0.0000   0.0000   0.0000   0.0000   0.0000   0.0000   0.0000
     0.0000   0.0000   0.0000   0.0000   0.0000   0.0000   0.0000   0.0000
     0.0000   0.0000   0.0000   0.0000

          k =-0.5000-0.3333 0.3333 (164428 PWs)   bands (ev):

   -25.6882 -24.7501 -24.5540 -24.4299 -23.7208 -21.6767 -21.2493 -21.1419
   -20.5509 -18.3422 -17.8642 -16.8795 -16.4041 -15.4661 -14.3966 -14.0497
   -13.2038 -13.1771 -12.5515 -12.3687 -12.0049 -11.8376 -11.5114 -11.3547
   -11.0149 -10.6984 -10.6274 -10.3794 -10.2696 -10.0565  -9.8495  -9.7841
    -9.6199  -9.3284  -9.2232  -8.8743  -8.6604  -8.6233  -8.5234  -8.3894
    -8.3826  -8.3113  -8.1985  -8.1659  -7.9401  -7.3782  -7.1995  -7.1250
    -7.0582  -6.3446  -5.5162  -5.2215  -4.9283  -4.7637  -4.6916  -4.5226
    -4.4616  -4.2119  -3.7684  -1.5052  -0.7374  -0.4018   0.1691   0.4706
     0.5321   0.8077   0.9587   1.0414   1.1534   1.3038   1.6289   1.6985
     1.9098   1.9798   2.1204   2.2822   2.3415   2.4053   2.4219   2.6040
     2.6841   2.7361   2.8061   2.8360   2.9399   3.0162   3.1174   3.1708
     3.2184   3.3158   3.3662   3.4888   3.5574   3.6357   3.6752   3.7838
     3.8390   3.9367   4.0361   4.1174

     occupation numbers 
     1.0000   1.0000   1.0000   1.0000   1.0000   1.0000   1.0000   1.0000
     1.0000   1.0000   1.0000   1.0000   1.0000   1.0000   1.0000   1.0000
     1.0000   1.0000   1.0000   1.0000   1.0000   1.0000   1.0000   1.0000
     1.0000   1.0000   1.0000   1.0000   1.0000   1.0000   1.0000   1.0000
     1.0000   1.0000   1.0000   1.0000   1.0000   1.0000   1.0000   1.0000
     1.0000   1.0000   1.0000   1.0000   1.0000   1.0000   1.0000   1.0000
     1.0000   1.0000   1.0000   1.0000   1.0000   1.0000   1.0000   1.0000
     1.0000   1.0000   1.0000   0.0000   0.0000   0.0000   0.0000   0.0000
     0.0000   0.0000   0.0000   0.0000   0.0000   0.0000   0.0000   0.0000
     0.0000   0.0000   0.0000   0.0000   0.0000   0.0000   0.0000   0.0000
     0.0000   0.0000   0.0000   0.0000   0.0000   0.0000   0.0000   0.0000
     0.0000   0.0000   0.0000   0.0000   0.0000   0.0000   0.0000   0.0000
     0.0000   0.0000   0.0000   0.0000

          k = 0.5000-0.3333-0.3333 (164428 PWs)   bands (ev):

   -25.6882 -24.7501 -24.5540 -24.4299 -23.7208 -21.6767 -21.2493 -21.1419
   -20.5509 -18.3422 -17.8642 -16.8795 -16.4041 -15.4661 -14.3966 -14.0497
   -13.2038 -13.1771 -12.5515 -12.3687 -12.0049 -11.8376 -11.5114 -11.3547
   -11.0149 -10.6984 -10.6274 -10.3794 -10.2696 -10.0565  -9.8495  -9.7841
    -9.6199  -9.3284  -9.2232  -8.8743  -8.6604  -8.6233  -8.5234  -8.3892
    -8.3827  -8.3113  -8.1984  -8.1660  -7.9401  -7.3782  -7.1995  -7.1250
    -7.0582  -6.3446  -5.5162  -5.2215  -4.9283  -4.7636  -4.6916  -4.5226
    -4.4616  -4.2119  -3.7684  -1.5052  -0.7374  -0.4019   0.1735   0.4692
     0.5193   0.7981   0.9838   1.0713   1.1294   1.3103   1.5811   1.6772
     1.9556   2.0493   2.1915   2.2099   2.2734   2.3473   2.4312   2.5976
     2.6926   2.7496   2.7904   2.8872   2.9370   3.0461   3.1227   3.1683
     3.1977   3.3002   3.3988   3.4752   3.5818   3.6131   3.7138   3.8432
     3.8712   3.9376   3.9888   4.0570

     occupation numbers 
     1.0000   1.0000   1.0000   1.0000   1.0000   1.0000   1.0000   1.0000
     1.0000   1.0000   1.0000   1.0000   1.0000   1.0000   1.0000   1.0000
     1.0000   1.0000   1.0000   1.0000   1.0000   1.0000   1.0000   1.0000
     1.0000   1.0000   1.0000   1.0000   1.0000   1.0000   1.0000   1.0000
     1.0000   1.0000   1.0000   1.0000   1.0000   1.0000   1.0000   1.0000
     1.0000   1.0000   1.0000   1.0000   1.0000   1.0000   1.0000   1.0000
     1.0000   1.0000   1.0000   1.0000   1.0000   1.0000   1.0000   1.0000
     1.0000   1.0000   1.0000   0.0000   0.0000   0.0000   0.0000   0.0000
     0.0000   0.0000   0.0000   0.0000   0.0000   0.0000   0.0000   0.0000
     0.0000   0.0000   0.0000   0.0000   0.0000   0.0000   0.0000   0.0000
     0.0000   0.0000   0.0000   0.0000   0.0000   0.0000   0.0000   0.0000
     0.0000   0.0000   0.0000   0.0000   0.0000   0.0000   0.0000   0.0000
     0.0000   0.0000   0.0000   0.0000

          k =-0.3333-0.5000 0.3333 (164428 PWs)   bands (ev):

   -25.6882 -24.7501 -24.5540 -24.4299 -23.7208 -21.6767 -21.2493 -21.1419
   -20.5509 -18.3422 -17.8642 -16.8795 -16.4041 -15.4661 -14.3965 -14.0497
   -13.2038 -13.1771 -12.5515 -12.3687 -12.0049 -11.8376 -11.5114 -11.3547
   -11.0149 -10.6984 -10.6274 -10.3794 -10.2695 -10.0565  -9.8494  -9.7842
    -9.6198  -9.3285  -9.2232  -8.8746  -8.6601  -8.6234  -8.5234  -8.3897
    -8.3822  -8.3113  -8.1986  -8.1658  -7.9401  -7.3783  -7.1994  -7.1252
    -7.0582  -6.3446  -5.5163  -5.2215  -4.9281  -4.7637  -4.6916  -4.5226
    -4.4610  -4.2125  -3.7684  -1.5053  -0.7369  -0.4021   0.1658   0.4320
     0.6182   0.7628   0.9329   1.1070   1.1808   1.2413   1.6032   1.6856
     1.8653   2.0759   2.1311   2.2232   2.3064   2.4200   2.5052   2.5650
     2.6664   2.7580   2.7976   2.8728   2.9598   3.0045   3.0845   3.1634
     3.2552   3.3407   3.4243   3.4856   3.5407   3.5930   3.6640   3.7613
     3.8634   3.9434   4.0052   4.0399

     occupation numbers 
     1.0000   1.0000   1.0000   1.0000   1.0000   1.0000   1.0000   1.0000
     1.0000   1.0000   1.0000   1.0000   1.0000   1.0000   1.0000   1.0000
     1.0000   1.0000   1.0000   1.0000   1.0000   1.0000   1.0000   1.0000
     1.0000   1.0000   1.0000   1.0000   1.0000   1.0000   1.0000   1.0000
     1.0000   1.0000   1.0000   1.0000   1.0000   1.0000   1.0000   1.0000
     1.0000   1.0000   1.0000   1.0000   1.0000   1.0000   1.0000   1.0000
     1.0000   1.0000   1.0000   1.0000   1.0000   1.0000   1.0000   1.0000
     1.0000   1.0000   1.0000   0.0000   0.0000   0.0000   0.0000   0.0000
     0.0000   0.0000   0.0000   0.0000   0.0000   0.0000   0.0000   0.0000
     0.0000   0.0000   0.0000   0.0000   0.0000   0.0000   0.0000   0.0000
     0.0000   0.0000   0.0000   0.0000   0.0000   0.0000   0.0000   0.0000
     0.0000   0.0000   0.0000   0.0000   0.0000   0.0000   0.0000   0.0000
     0.0000   0.0000   0.0000   0.0000

          k =-0.3333 0.5000-0.3333 (164428 PWs)   bands (ev):

   -25.6882 -24.7501 -24.5540 -24.4299 -23.7208 -21.6767 -21.2493 -21.1419
   -20.5509 -18.3422 -17.8642 -16.8795 -16.4041 -15.4661 -14.3965 -14.0497
   -13.2038 -13.1771 -12.5515 -12.3687 -12.0049 -11.8376 -11.5114 -11.3547
   -11.0149 -10.6984 -10.6274 -10.3794 -10.2695 -10.0565  -9.8494  -9.7842
    -9.6198  -9.3285  -9.2232  -8.8746  -8.6601  -8.6234  -8.5234  -8.3897
    -8.3822  -8.3113  -8.1986  -8.1658  -7.9401  -7.3783  -7.1994  -7.1252
    -7.0582  -6.3446  -5.5163  -5.2215  -4.9281  -4.7637  -4.6916  -4.5226
    -4.4610  -4.2125  -3.7684  -1.5053  -0.7369  -0.4019   0.1675   0.4321
     0.6339   0.7425   0.9420   1.0577   1.1626   1.2858   1.6117   1.7106
     1.9114   2.0079   2.1264   2.2787   2.3350   2.4299   2.4747   2.5510
     2.6435   2.7451   2.7869   2.8563   2.9338   2.9932   3.1127   3.1951
     3.2595   3.2705   3.3787   3.4870   3.5329   3.6025   3.7190   3.7783
     3.8824   3.9305   3.9772   4.1159

     occupation numbers 
     1.0000   1.0000   1.0000   1.0000   1.0000   1.0000   1.0000   1.0000
     1.0000   1.0000   1.0000   1.0000   1.0000   1.0000   1.0000   1.0000
     1.0000   1.0000   1.0000   1.0000   1.0000   1.0000   1.0000   1.0000
     1.0000   1.0000   1.0000   1.0000   1.0000   1.0000   1.0000   1.0000
     1.0000   1.0000   1.0000   1.0000   1.0000   1.0000   1.0000   1.0000
     1.0000   1.0000   1.0000   1.0000   1.0000   1.0000   1.0000   1.0000
     1.0000   1.0000   1.0000   1.0000   1.0000   1.0000   1.0000   1.0000
     1.0000   1.0000   1.0000   0.0000   0.0000   0.0000   0.0000   0.0000
     0.0000   0.0000   0.0000   0.0000   0.0000   0.0000   0.0000   0.0000
     0.0000   0.0000   0.0000   0.0000   0.0000   0.0000   0.0000   0.0000
     0.0000   0.0000   0.0000   0.0000   0.0000   0.0000   0.0000   0.0000
     0.0000   0.0000   0.0000   0.0000   0.0000   0.0000   0.0000   0.0000
     0.0000   0.0000   0.0000   0.0000

          k =-0.5000 0.3333 0.5000 (164428 PWs)   bands (ev):

   -25.6882 -24.7501 -24.5540 -24.4299 -23.7208 -21.6767 -21.2493 -21.1419
   -20.5509 -18.3422 -17.8642 -16.8795 -16.4041 -15.4661 -14.3966 -14.0497
   -13.2038 -13.1771 -12.5515 -12.3687 -12.0049 -11.8376 -11.5114 -11.3547
   -11.0149 -10.6983 -10.6274 -10.3794 -10.2696 -10.0565  -9.8495  -9.7841
    -9.6199  -9.3284  -9.2232  -8.8743  -8.6605  -8.6232  -8.5234  -8.3893
    -8.3827  -8.3113  -8.1985  -8.1659  -7.9400  -7.3783  -7.1996  -7.1250
    -7.0583  -6.3445  -5.5162  -5.2215  -4.9283  -4.7637  -4.6916  -4.5226
    -4.4616  -4.2119  -3.7684  -1.5052  -0.7375  -0.4019   0.1946   0.4680
     0.4908   0.8157   0.9950   1.0561   1.1580   1.1825   1.6017   1.7672
     1.9553   2.0034   2.1715   2.2289   2.2981   2.3651   2.5323   2.6304
     2.6794   2.7322   2.8063   2.8662   2.9487   3.0268   3.1341   3.1822
     3.2081   3.2789   3.3652   3.4559   3.5189   3.5619   3.6403   3.7525
     3.8335   4.0111   4.0436   4.0813

     occupation numbers 
     1.0000   1.0000   1.0000   1.0000   1.0000   1.0000   1.0000   1.0000
     1.0000   1.0000   1.0000   1.0000   1.0000   1.0000   1.0000   1.0000
     1.0000   1.0000   1.0000   1.0000   1.0000   1.0000   1.0000   1.0000
     1.0000   1.0000   1.0000   1.0000   1.0000   1.0000   1.0000   1.0000
     1.0000   1.0000   1.0000   1.0000   1.0000   1.0000   1.0000   1.0000
     1.0000   1.0000   1.0000   1.0000   1.0000   1.0000   1.0000   1.0000
     1.0000   1.0000   1.0000   1.0000   1.0000   1.0000   1.0000   1.0000
     1.0000   1.0000   1.0000   0.0000   0.0000   0.0000   0.0000   0.0000
     0.0000   0.0000   0.0000   0.0000   0.0000   0.0000   0.0000   0.0000
     0.0000   0.0000   0.0000   0.0000   0.0000   0.0000   0.0000   0.0000
     0.0000   0.0000   0.0000   0.0000   0.0000   0.0000   0.0000   0.0000
     0.0000   0.0000   0.0000   0.0000   0.0000   0.0000   0.0000   0.0000
     0.0000   0.0000   0.0000   0.0000

          k =-0.5000 0.5000 0.3333 (164428 PWs)   bands (ev):

   -25.6882 -24.7501 -24.5540 -24.4299 -23.7208 -21.6767 -21.2493 -21.1419
   -20.5509 -18.3422 -17.8642 -16.8795 -16.4041 -15.4661 -14.3965 -14.0497
   -13.2038 -13.1771 -12.5515 -12.3687 -12.0049 -11.8376 -11.5114 -11.3547
   -11.0149 -10.6984 -10.6274 -10.3794 -10.2695 -10.0565  -9.8494  -9.7842
    -9.6198  -9.3285  -9.2232  -8.8746  -8.6601  -8.6234  -8.5234  -8.3897
    -8.3822  -8.3113  -8.1986  -8.1658  -7.9401  -7.3783  -7.1994  -7.1252
    -7.0582  -6.3446  -5.5162  -5.2215  -4.9283  -4.7637  -4.6916  -4.5226
    -4.4611  -4.2124  -3.7684  -1.5054  -0.7370  -0.4018   0.1840   0.4874
     0.5388   0.7822   0.9407   1.0180   1.1331   1.2597   1.5895   1.6750
     1.9798   2.1080   2.1911   2.2925   2.3949   2.4378   2.5030   2.5572
     2.6660   2.7217   2.7746   2.8386   2.9197   2.9625   3.0711   3.1741
     3.2362   3.2629   3.4042   3.4182   3.5133   3.5683   3.6801   3.7644
     3.8401   3.9235   3.9937   4.1026

     occupation numbers 
     1.0000   1.0000   1.0000   1.0000   1.0000   1.0000   1.0000   1.0000
     1.0000   1.0000   1.0000   1.0000   1.0000   1.0000   1.0000   1.0000
     1.0000   1.0000   1.0000   1.0000   1.0000   1.0000   1.0000   1.0000
     1.0000   1.0000   1.0000   1.0000   1.0000   1.0000   1.0000   1.0000
     1.0000   1.0000   1.0000   1.0000   1.0000   1.0000   1.0000   1.0000
     1.0000   1.0000   1.0000   1.0000   1.0000   1.0000   1.0000   1.0000
     1.0000   1.0000   1.0000   1.0000   1.0000   1.0000   1.0000   1.0000
     1.0000   1.0000   1.0000   0.0000   0.0000   0.0000   0.0000   0.0000
     0.0000   0.0000   0.0000   0.0000   0.0000   0.0000   0.0000   0.0000
     0.0000   0.0000   0.0000   0.0000   0.0000   0.0000   0.0000   0.0000
     0.0000   0.0000   0.0000   0.0000   0.0000   0.0000   0.0000   0.0000
     0.0000   0.0000   0.0000   0.0000   0.0000   0.0000   0.0000   0.0000
     0.0000   0.0000   0.0000   0.0000

     the Fermi energy is    -2.5068 ev

     Writing output data file aiida.save

     init_run     :     11.92s CPU     15.04s WALL (       1 calls)
     electrons    :  42961.89s CPU  64153.76s WALL (       1 calls)

     Called by init_run:
     wfcinit      :      0.00s CPU      0.00s WALL (       1 calls)
     potinit      :      1.34s CPU      1.76s WALL (       1 calls)

     Called by electrons:
     c_bands      :  42961.85s CPU  64153.59s WALL (       1 calls)
     v_of_rho     :      0.83s CPU      1.02s WALL (       1 calls)
     v_h          :      0.06s CPU      0.07s WALL (       1 calls)
     v_xc         :      0.77s CPU      0.94s WALL (       1 calls)
     newd         :      4.50s CPU      6.14s WALL (       1 calls)

     Called by c_bands:
     init_us_2    :      3.34s CPU      5.27s WALL (     112 calls)
     cegterg      :  41991.78s CPU  62716.27s WALL (     583 calls)

     Called by sum_band:

     Called by *egterg:
     h_psi        :  17572.21s CPU  27314.26s WALL (   11540 calls)
     s_psi        :   3798.72s CPU   4606.19s WALL (   11540 calls)
     g_psi        :     30.58s CPU     38.61s WALL (   10845 calls)
     cdiaghg      :   1467.61s CPU   2860.45s WALL (   10957 calls)
     cegterg:over :   7903.68s CPU  11290.48s WALL (   10845 calls)
     cegterg:upda :   5878.14s CPU   8185.66s WALL (   10845 calls)
     cegterg:last :   4828.16s CPU   6473.13s WALL (    1143 calls)
     cdiaghg:chol :     63.62s CPU    168.57s WALL (   10957 calls)
     cdiaghg:inve :     12.81s CPU     17.59s WALL (   10957 calls)
     cdiaghg:para :    600.25s CPU    971.26s WALL (   21914 calls)

     Called by h_psi:
     h_psi:vloc   :   9783.30s CPU  16976.77s WALL (   11540 calls)
     h_psi:vnl    :   7754.91s CPU  10282.90s WALL (   11540 calls)
     add_vuspsi   :   3876.48s CPU   4817.00s WALL (   11540 calls)

     General routines
     calbec       :   3878.27s CPU   5465.80s WALL (   11540 calls)
     fft          :      0.66s CPU      0.88s WALL (      13 calls)
     ffts         :      0.02s CPU      0.02s WALL (       1 calls)
     fftw         :   8096.28s CPU  15102.33s WALL (  660352 calls)
     interpolate  :      0.07s CPU      0.08s WALL (       1 calls)
     davcio       :      0.29s CPU      6.93s WALL (     112 calls)

     Parallel routines
     fft_scatter  :   4543.81s CPU  11151.58s WALL (  660366 calls)

     PAW routines
     PAW_pot      :      0.08s CPU      0.23s WALL (       1 calls)

     PWSCF        :    11h56m CPU       17h50m WALL


   This run was terminated on:   6:24: 3  12Jan2023            

=------------------------------------------------------------------------------=
   JOB DONE.
=------------------------------------------------------------------------------=
