
     Program PWSCF v.5.1 starts on 11Jan2023 at  5:51:34 

     This program is part of the open-source Quantum ESPRESSO suite
     for quantum simulation of materials; please cite
         "P. Giannozzi et al., J. Phys.:Condens. Matter 21 395502 (2009);
          URL http://www.quantum-espresso.org", 
     in publications or presentations arising from this work. More details at
     http://www.quantum-espresso.org/quote

     Parallel version (MPI), running on    16 processors
     R & G space division:  proc/nbgrp/npool/nimage =      16
     Waiting for input...
     Reading input from standard input

     Current dimensions of program PWSCF are:
     Max number of different atomic species (ntypx) = 10
     Max number of k-points (npk) =  40000
     Max angular momentum in pseudopotentials (lmaxx) =  3
               file C.pbesol-n-kjpaw_psl.1.0.0.UPF: wavefunction(s)  2S 2P renormalized
               file H.pbesol-kjpaw_psl.0.1.UPF: wavefunction(s)  1S renormalized
               file N.pbesol-n-kjpaw_psl.0.1.UPF: wavefunction(s)  2P renormalized
               file O.pbesol-n-kjpaw_psl.0.1.UPF: wavefunction(s)  2P renormalized

     -------------------------------------
     Parameters for Dispersion Correction:
     -------------------------------------
       atom      VdW radius       C_6     

        C          2.744         60.710
        H          1.892          4.857
        N          2.640         42.670
        O          2.536         24.284

     Subspace diagonalization in iterative solution of the eigenvalue problem:
     scalapack distributed-memory algorithm (size of sub-group:  2*  2 procs)


     Parallelization info
     --------------------
     sticks:   dense  smooth     PW     G-vecs:    dense   smooth      PW
     Min        1812     905    235               232514    82196   10821
     Max        1813     906    236               232519    82229   10824
     Sum       29005   14485   3761              3720285  1315387  173157



     bravais-lattice index     =            0
     lattice parameter (alat)  =      22.5090  a.u.
     unit-cell volume          =   11404.2970 (a.u.)^3
     number of atoms/cell      =           44
     number of atomic types    =            4
     number of electrons       =       118.00
     number of Kohn-Sham states=           59
     kinetic-energy cutoff     =      90.0000  Ry
     charge density cutoff     =     720.0000  Ry
     convergence threshold     =      1.0E-08
     mixing beta               =       0.4000
     number of iterations used =            8  plain     mixing
     Exchange-correlation      =  SLA  PW   PSX  PSC ( 1  4 10  8 0)

     celldm(1)=  22.508999  celldm(2)=   0.000000  celldm(3)=   0.000000
     celldm(4)=   0.000000  celldm(5)=   0.000000  celldm(6)=   0.000000

     crystal axes: (cart. coord. in units of alat)
               a(1) = (   1.000000   0.000000   0.000000 )  
               a(2) = (   0.000000   1.000000   0.000000 )  
               a(3) = (   0.000000   0.000000   1.000000 )  

     reciprocal axes: (cart. coord. in units 2 pi/alat)
               b(1) = (  1.000000  0.000000  0.000000 )  
               b(2) = (  0.000000  1.000000  0.000000 )  
               b(3) = (  0.000000  0.000000  1.000000 )  


     PseudoPot. # 1 for  C read from file:
     ./pseudo/C.pbesol-n-kjpaw_psl.1.0.0.UPF
     MD5 check sum: 5f3a56537b2bcef3348431d8311bb923
     Pseudo is Projector augmented-wave + core cor, Zval =  4.0
     Generated using "atomic" code by A. Dal Corso  v.6.0 svn rev. 13079
     Shape of augmentation charge: PSQ
     Using radial grid of 1073 points,  4 beta functions with: 
                l(1) =   0
                l(2) =   0
                l(3) =   1
                l(4) =   1
     Q(r) pseudized with 0 coefficients 


     PseudoPot. # 2 for  H read from file:
     ./pseudo/H.pbesol-kjpaw_psl.0.1.UPF
     MD5 check sum: 27a6b98f1514c59d399e798f1258b8b7
     Pseudo is Projector augmented-wave, Zval =  1.0
     Generated using "atomic" code by A. Dal Corso  v.5.0.2 svn rev. 9415
     Shape of augmentation charge: PSQ
     Using radial grid of  929 points,  2 beta functions with: 
                l(1) =   0
                l(2) =   0
     Q(r) pseudized with 0 coefficients 


     PseudoPot. # 3 for  N read from file:
     ./pseudo/N.pbesol-n-kjpaw_psl.0.1.UPF
     MD5 check sum: 15bd223d5d75e9eda893d0f4e6bdad1b
     Pseudo is Projector augmented-wave + core cor, Zval =  5.0
     Generated using "atomic" code by A. Dal Corso  v.6.3
     Shape of augmentation charge: PSQ
     Using radial grid of 1085 points,  4 beta functions with: 
                l(1) =   0
                l(2) =   0
                l(3) =   1
                l(4) =   1
     Q(r) pseudized with 0 coefficients 


     PseudoPot. # 4 for  O read from file:
     ./pseudo/O.pbesol-n-kjpaw_psl.0.1.UPF
     MD5 check sum: 81d73d1479e654e5638b0319f0d6c2c7
     Pseudo is Projector augmented-wave + core cor, Zval =  6.0
     Generated using "atomic" code by A. Dal Corso  v.6.0 svn rev. 13079
     Shape of augmentation charge: BESSEL
     Using radial grid of 1095 points,  4 beta functions with: 
                l(1) =   0
                l(2) =   0
                l(3) =   1
                l(4) =   1
     Q(r) pseudized with 0 coefficients 


     atomic species   valence    mass     pseudopotential
        C              4.00    12.01070      C( 1.00)
        H              1.00     1.00794      H( 1.00)
        N              5.00    14.00670      N( 1.00)
        O              6.00    15.99940      O( 1.00)

     No symmetry found



   Cartesian axes

     site n.     atom                  positions (alat units)
         1           H   tau(   1) = (   0.7510869   0.9014794   0.6773038  )
         2           H   tau(   2) = (   0.6221551   0.8621480   0.6466093  )
         3           H   tau(   3) = (   0.8228430   0.7195913   0.6566218  )
         4           H   tau(   4) = (   0.7648129   0.6835805   0.4414391  )
         5           H   tau(   5) = (   0.6662958   0.6148206   0.7265203  )
         6           H   tau(   6) = (   0.7188018   0.5647337   0.5943192  )
         7           H   tau(   7) = (   0.5191479   0.5811151   0.5995173  )
         8           H   tau(   8) = (   0.7460176   0.2742689   0.4083733  )
         9           H   tau(   9) = (   0.5471391   0.2524535   0.3833532  )
        10           H   tau(  10) = (   0.6997127   0.1621923   0.1985375  )
        11           H   tau(  11) = (   0.4863559   0.3192270   0.1778568  )
        12           H   tau(  12) = (   0.6066707   0.4073875   0.1913917  )
        13           H   tau(  13) = (   0.5145466   0.4641752   0.3879819  )
        14           H   tau(  14) = (   0.3893733   0.4067730   0.3281503  )
        15           H   tau(  15) = (   0.7070998   0.4011666   0.3674073  )
        16           H   tau(  16) = (   0.3549057   0.6453923   0.1456097  )
        17           H   tau(  17) = (   0.2965975   0.5202420   0.1946041  )
        18           H   tau(  18) = (   0.1889937   0.4016012   0.8328142  )
        19           H   tau(  19) = (   0.3633311   0.3217426   0.7884870  )
        20           H   tau(  20) = (   0.2813743   0.4718644   0.5950439  )
        21           H   tau(  21) = (   0.3780816   0.2117997   0.6038440  )
        22           H   tau(  22) = (   0.2715491   0.1579124   0.6945801  )
        23           H   tau(  23) = (   0.2332915   0.2452036   0.5788442  )
        24           H   tau(  24) = (   0.1409249   0.2922897   0.7614443  )
        25           C   tau(  25) = (   0.7394860   0.7403971   0.6203908  )
        26           C   tau(  26) = (   0.7632028   0.7608765   0.4960127  )
        27           C   tau(  27) = (   0.6711527   0.6339670   0.6355860  )
        28           C   tau(  28) = (   0.6025404   0.2746581   0.3115703  )
        29           C   tau(  29) = (   0.6159105   0.1691660   0.2414229  )
        30           C   tau(  30) = (   0.5414044   0.3616933   0.2388632  )
        31           C   tau(  31) = (   0.4717159   0.4445881   0.3082598  )
        32           C   tau(  32) = (   0.4615196   0.5550267   0.2458985  )
        33           C   tau(  33) = (   0.3029620   0.3348667   0.7191169  )
        34           C   tau(  34) = (   0.3477611   0.4287532   0.6462786  )
        35           C   tau(  35) = (   0.2973099   0.2310733   0.6441743  )
        36           N   tau(  36) = (   0.6958011   0.8356955   0.6820091  )
        37           N   tau(  37) = (   0.7118058   0.3186302   0.3435635  )
        38           N   tau(  38) = (   0.3629705   0.5733738   0.1905902  )
        39           N   tau(  39) = (   0.1903216   0.3621852   0.7566026  )
        40           O   tau(  40) = (   0.7825060   0.8526400   0.4563791  )
        41           O   tau(  41) = (   0.5643278   0.6492424   0.5868272  )
        42           O   tau(  42) = (   0.5424679   0.0998896   0.2291005  )
        43           O   tau(  43) = (   0.5397167   0.6217996   0.2425347  )
        44           O   tau(  44) = (   0.4464332   0.4549481   0.6409555  )

     number of k points=    14
                       cart. coord. in units 2pi/alat
        k(    1) = (   0.0000000   0.0000000   0.0000000), wk =   0.0740741
        k(    2) = (   0.0000000   0.0000000   0.3333333), wk =   0.1481481
        k(    3) = (   0.0000000   0.3333333   0.3333333), wk =   0.1481481
        k(    4) = (   0.3333333   0.3333333   0.3333333), wk =   0.1481481
        k(    5) = (   0.3333333   0.0000000   0.0000000), wk =   0.1481481
        k(    6) = (   0.0000000   0.3333333   0.0000000), wk =   0.1481481
        k(    7) = (   0.0000000  -0.3333333   0.3333333), wk =   0.1481481
        k(    8) = (   0.3333333   0.0000000  -0.3333333), wk =   0.1481481
        k(    9) = (  -0.3333333   0.0000000  -0.3333333), wk =   0.1481481
        k(   10) = (   0.3333333  -0.3333333   0.0000000), wk =   0.1481481
        k(   11) = (  -0.3333333  -0.3333333   0.0000000), wk =   0.1481481
        k(   12) = (  -0.3333333  -0.3333333   0.3333333), wk =   0.1481481
        k(   13) = (  -0.3333333   0.3333333  -0.3333333), wk =   0.1481481
        k(   14) = (   0.3333333  -0.3333333  -0.3333333), wk =   0.1481481

     Dense  grid:  3720285 G-vectors     FFT dimensions: ( 200, 200, 200)

     Smooth grid:  1315387 G-vectors     FFT dimensions: ( 135, 135, 135)

     Largest allocated arrays     est. size (Mb)     dimensions
        Kohn-Sham Wavefunctions         9.26 Mb     (   10287,   59)
        NL pseudopotentials            32.65 Mb     (   10287,  208)
        Each V/rho on FFT grid          7.93 Mb     (  520000)
        Each G-vector array             1.77 Mb     (  232519)
        G-vector shells                 0.06 Mb     (    7589)
     Largest temporary arrays     est. size (Mb)     dimensions
        Auxiliary wavefunctions        37.04 Mb     (   10287,  236)
        Each subspace H/S matrix        0.21 Mb     (     118,  118)
        Each <psi_i|beta_j> matrix      0.19 Mb     (     208,   59)
        Arrays for rho mixing          63.48 Mb     (  520000,    8)

     Initial potential from superposition of free atoms

     starting charge  117.99924, renormalised to  118.00000

     negative rho (up, down):  2.170E-05 0.000E+00
     Starting wfc are  104 randomized atomic wfcs
     Checking if some PAW data can be deallocated... 

     total cpu time spent up to now is      140.2 secs

     per-process dynamical memory:   300.2 Mb

     Self-consistent Calculation

     iteration #  1     ecut=    90.00 Ry     beta=0.40
     Davidson diagonalization with overlap
     ethr =  1.00E-02,  avg # of iterations =  2.0

     negative rho (up, down):  4.321E-05 0.000E+00

     total cpu time spent up to now is      426.6 secs

     total energy              =    -543.46087101 Ry
     Harris-Foulkes estimate   =    -545.99458805 Ry
     estimated scf accuracy    <       5.27273908 Ry

     iteration #  2     ecut=    90.00 Ry     beta=0.40
     Davidson diagonalization with overlap
     ethr =  4.47E-03,  avg # of iterations =  2.0

     negative rho (up, down):  7.294E-05 0.000E+00

     total cpu time spent up to now is      697.8 secs

     total energy              =    -544.20920017 Ry
     Harris-Foulkes estimate   =    -544.36540839 Ry
     estimated scf accuracy    <       0.48814505 Ry

     iteration #  3     ecut=    90.00 Ry     beta=0.40
     Davidson diagonalization with overlap
     ethr =  4.14E-04,  avg # of iterations =  2.0

     negative rho (up, down):  1.611E-04 0.000E+00

     total cpu time spent up to now is      934.9 secs

     total energy              =    -544.18937848 Ry
     Harris-Foulkes estimate   =    -544.25183097 Ry
     estimated scf accuracy    <       0.14934261 Ry

     iteration #  4     ecut=    90.00 Ry     beta=0.40
     Davidson diagonalization with overlap
     ethr =  1.27E-04,  avg # of iterations =  3.0

     negative rho (up, down):  1.654E-04 0.000E+00

     total cpu time spent up to now is     1412.7 secs

     total energy              =    -544.20387382 Ry
     Harris-Foulkes estimate   =    -544.21242629 Ry
     estimated scf accuracy    <       0.01797265 Ry

     iteration #  5     ecut=    90.00 Ry     beta=0.40
     Davidson diagonalization with overlap
     ethr =  1.52E-05,  avg # of iterations =  3.0

     negative rho (up, down):  1.814E-04 0.000E+00

     total cpu time spent up to now is     1916.3 secs

     total energy              =    -544.20694169 Ry
     Harris-Foulkes estimate   =    -544.20787893 Ry
     estimated scf accuracy    <       0.00296083 Ry

     iteration #  6     ecut=    90.00 Ry     beta=0.40
     Davidson diagonalization with overlap
     ethr =  2.51E-06,  avg # of iterations =  4.0

     negative rho (up, down):  1.824E-04 0.000E+00

     total cpu time spent up to now is     2392.8 secs

     total energy              =    -544.20736873 Ry
     Harris-Foulkes estimate   =    -544.20749886 Ry
     estimated scf accuracy    <       0.00041049 Ry

     iteration #  7     ecut=    90.00 Ry     beta=0.40
     Davidson diagonalization with overlap
     ethr =  3.48E-07,  avg # of iterations =  4.0

     negative rho (up, down):  1.796E-04 0.000E+00

     total cpu time spent up to now is     2746.1 secs

     total energy              =    -544.20742142 Ry
     Harris-Foulkes estimate   =    -544.20744896 Ry
     estimated scf accuracy    <       0.00008091 Ry

     iteration #  8     ecut=    90.00 Ry     beta=0.40
     Davidson diagonalization with overlap
     ethr =  6.86E-08,  avg # of iterations =  4.0

     negative rho (up, down):  1.785E-04 0.000E+00

     total cpu time spent up to now is     3124.0 secs

     total energy              =    -544.20743625 Ry
     Harris-Foulkes estimate   =    -544.20743818 Ry
     estimated scf accuracy    <       0.00001521 Ry

     iteration #  9     ecut=    90.00 Ry     beta=0.40
     Davidson diagonalization with overlap
     ethr =  1.29E-08,  avg # of iterations =  4.0

     negative rho (up, down):  1.778E-04 0.000E+00

     total cpu time spent up to now is     3423.1 secs

     total energy              =    -544.20743820 Ry
     Harris-Foulkes estimate   =    -544.20743825 Ry
     estimated scf accuracy    <       0.00000263 Ry

     iteration # 10     ecut=    90.00 Ry     beta=0.40
     Davidson diagonalization with overlap
     ethr =  2.23E-09,  avg # of iterations =  4.0

     negative rho (up, down):  1.775E-04 0.000E+00

     total cpu time spent up to now is     3757.4 secs

     total energy              =    -544.20743871 Ry
     Harris-Foulkes estimate   =    -544.20743883 Ry
     estimated scf accuracy    <       0.00000067 Ry

     iteration # 11     ecut=    90.00 Ry     beta=0.40
     Davidson diagonalization with overlap
     ethr =  5.71E-10,  avg # of iterations =  4.0

     negative rho (up, down):  1.774E-04 0.000E+00

     total cpu time spent up to now is     4030.1 secs

     total energy              =    -544.20743883 Ry
     Harris-Foulkes estimate   =    -544.20743884 Ry
     estimated scf accuracy    <       0.00000013 Ry

     iteration # 12     ecut=    90.00 Ry     beta=0.40
     Davidson diagonalization with overlap
     ethr =  1.07E-10,  avg # of iterations =  3.8

     negative rho (up, down):  1.773E-04 0.000E+00

     total cpu time spent up to now is     4337.0 secs

     total energy              =    -544.20743885 Ry
     Harris-Foulkes estimate   =    -544.20743885 Ry
     estimated scf accuracy    <       0.00000002 Ry

     iteration # 13     ecut=    90.00 Ry     beta=0.40
     Davidson diagonalization with overlap
     ethr =  1.64E-11,  avg # of iterations =  4.0

     negative rho (up, down):  1.774E-04 0.000E+00

     total cpu time spent up to now is     4744.5 secs

     End of self-consistent calculation

          k = 0.0000 0.0000 0.0000 (164415 PWs)   bands (ev):

   -25.6884 -24.7502 -24.5539 -24.4300 -23.7209 -21.6766 -21.2491 -21.1419
   -20.5509 -18.3421 -17.8641 -16.8795 -16.4040 -15.4660 -14.3965 -14.0497
   -13.2038 -13.1769 -12.5514 -12.3688 -12.0047 -11.8374 -11.5115 -11.3546
   -11.0150 -10.6982 -10.6273 -10.3794 -10.2699 -10.0566  -9.8498  -9.7837
    -9.6202  -9.3282  -9.2231  -8.8733  -8.6615  -8.6230  -8.5233  -8.3870
    -8.3849  -8.3114  -8.1981  -8.1662  -7.9404  -7.3778  -7.1997  -7.1242
    -7.0585  -6.3446  -5.5168  -5.2214  -4.9276  -4.7635  -4.6917  -4.5227
    -4.4634  -4.2104  -3.7684

          k = 0.0000 0.0000 0.3333 (164448 PWs)   bands (ev):

   -25.6884 -24.7502 -24.5539 -24.4300 -23.7209 -21.6766 -21.2491 -21.1419
   -20.5509 -18.3421 -17.8641 -16.8795 -16.4040 -15.4660 -14.3965 -14.0497
   -13.2037 -13.1770 -12.5514 -12.3688 -12.0046 -11.8375 -11.5115 -11.3546
   -11.0150 -10.6982 -10.6273 -10.3794 -10.2699 -10.0566  -9.8498  -9.7837
    -9.6202  -9.3282  -9.2231  -8.8733  -8.6616  -8.6229  -8.5232  -8.3873
    -8.3848  -8.3114  -8.1982  -8.1662  -7.9400  -7.3779  -7.1998  -7.1242
    -7.0585  -6.3446  -5.5168  -5.2214  -4.9276  -4.7636  -4.6917  -4.5226
    -4.4634  -4.2103  -3.7685

          k = 0.0000 0.3333 0.3333 (164442 PWs)   bands (ev):

   -25.6884 -24.7502 -24.5539 -24.4300 -23.7209 -21.6766 -21.2491 -21.1419
   -20.5509 -18.3421 -17.8641 -16.8795 -16.4040 -15.4660 -14.3965 -14.0497
   -13.2037 -13.1770 -12.5514 -12.3688 -12.0047 -11.8376 -11.5115 -11.3547
   -11.0150 -10.6983 -10.6273 -10.3794 -10.2696 -10.0565  -9.8495  -9.7841
    -9.6199  -9.3284  -9.2232  -8.8743  -8.6605  -8.6233  -8.5233  -8.3892
    -8.3827  -8.3113  -8.1985  -8.1659  -7.9400  -7.3781  -7.1994  -7.1249
    -7.0582  -6.3446  -5.5168  -5.2214  -4.9275  -4.7636  -4.6916  -4.5226
    -4.4617  -4.2120  -3.7684

          k = 0.3333 0.3333 0.3333 (164442 PWs)   bands (ev):

   -25.6884 -24.7502 -24.5539 -24.4300 -23.7209 -21.6766 -21.2491 -21.1419
   -20.5509 -18.3421 -17.8641 -16.8795 -16.4040 -15.4660 -14.3965 -14.0497
   -13.2037 -13.1770 -12.5514 -12.3688 -12.0047 -11.8376 -11.5114 -11.3547
   -11.0149 -10.6983 -10.6273 -10.3794 -10.2696 -10.0565  -9.8495  -9.7841
    -9.6199  -9.3284  -9.2232  -8.8743  -8.6605  -8.6233  -8.5233  -8.3892
    -8.3827  -8.3113  -8.1985  -8.1659  -7.9400  -7.3781  -7.1994  -7.1249
    -7.0582  -6.3446  -5.5164  -5.2214  -4.9281  -4.7636  -4.6916  -4.5226
    -4.4617  -4.2120  -3.7684

          k = 0.3333 0.0000 0.0000 (164448 PWs)   bands (ev):

   -25.6884 -24.7502 -24.5539 -24.4300 -23.7209 -21.6766 -21.2491 -21.1419
   -20.5509 -18.3421 -17.8641 -16.8795 -16.4040 -15.4660 -14.3965 -14.0497
   -13.2038 -13.1769 -12.5514 -12.3688 -12.0047 -11.8375 -11.5115 -11.3546
   -11.0150 -10.6982 -10.6273 -10.3794 -10.2699 -10.0566  -9.8498  -9.7837
    -9.6203  -9.3282  -9.2231  -8.8733  -8.6615  -8.6230  -8.5233  -8.3870
    -8.3849  -8.3114  -8.1981  -8.1662  -7.9404  -7.3778  -7.1997  -7.1242
    -7.0585  -6.3446  -5.5164  -5.2214  -4.9281  -4.7635  -4.6917  -4.5227
    -4.4634  -4.2103  -3.7684

          k = 0.0000 0.3333 0.0000 (164448 PWs)   bands (ev):

   -25.6884 -24.7502 -24.5539 -24.4300 -23.7209 -21.6766 -21.2491 -21.1419
   -20.5509 -18.3421 -17.8641 -16.8795 -16.4040 -15.4660 -14.3965 -14.0497
   -13.2038 -13.1769 -12.5514 -12.3688 -12.0047 -11.8375 -11.5114 -11.3547
   -11.0150 -10.6983 -10.6273 -10.3794 -10.2696 -10.0565  -9.8495  -9.7841
    -9.6199  -9.3284  -9.2232  -8.8743  -8.6604  -8.6234  -8.5234  -8.3894
    -8.3824  -8.3113  -8.1985  -8.1659  -7.9403  -7.3780  -7.1993  -7.1249
    -7.0582  -6.3446  -5.5168  -5.2215  -4.9275  -4.7635  -4.6916  -4.5226
    -4.4617  -4.2121  -3.7684

          k = 0.0000-0.3333 0.3333 (164442 PWs)   bands (ev):

   -25.6884 -24.7502 -24.5539 -24.4300 -23.7209 -21.6766 -21.2491 -21.1419
   -20.5509 -18.3421 -17.8641 -16.8795 -16.4040 -15.4660 -14.3965 -14.0497
   -13.2037 -13.1770 -12.5514 -12.3688 -12.0047 -11.8376 -11.5115 -11.3547
   -11.0150 -10.6983 -10.6273 -10.3794 -10.2696 -10.0565  -9.8495  -9.7841
    -9.6199  -9.3284  -9.2232  -8.8743  -8.6605  -8.6233  -8.5233  -8.3894
    -8.3826  -8.3113  -8.1985  -8.1659  -7.9400  -7.3781  -7.1994  -7.1249
    -7.0582  -6.3446  -5.5168  -5.2214  -4.9275  -4.7636  -4.6916  -4.5226
    -4.4617  -4.2120  -3.7684

          k = 0.3333 0.0000-0.3333 (164442 PWs)   bands (ev):

   -25.6884 -24.7502 -24.5539 -24.4300 -23.7209 -21.6766 -21.2491 -21.1419
   -20.5509 -18.3421 -17.8641 -16.8795 -16.4040 -15.4660 -14.3965 -14.0497
   -13.2037 -13.1770 -12.5514 -12.3688 -12.0046 -11.8375 -11.5115 -11.3546
   -11.0150 -10.6982 -10.6273 -10.3794 -10.2699 -10.0566  -9.8498  -9.7837
    -9.6203  -9.3282  -9.2231  -8.8733  -8.6616  -8.6229  -8.5232  -8.3873
    -8.3848  -8.3114  -8.1982  -8.1662  -7.9400  -7.3779  -7.1998  -7.1242
    -7.0585  -6.3445  -5.5164  -5.2214  -4.9281  -4.7636  -4.6917  -4.5226
    -4.4634  -4.2103  -3.7684

          k =-0.3333 0.0000-0.3333 (164442 PWs)   bands (ev):

   -25.6884 -24.7502 -24.5539 -24.4300 -23.7209 -21.6766 -21.2491 -21.1419
   -20.5509 -18.3421 -17.8641 -16.8795 -16.4040 -15.4660 -14.3965 -14.0497
   -13.2037 -13.1770 -12.5514 -12.3688 -12.0046 -11.8375 -11.5115 -11.3546
   -11.0150 -10.6982 -10.6273 -10.3794 -10.2699 -10.0566  -9.8498  -9.7837
    -9.6203  -9.3282  -9.2231  -8.8733  -8.6616  -8.6229  -8.5232  -8.3873
    -8.3848  -8.3114  -8.1982  -8.1662  -7.9400  -7.3779  -7.1998  -7.1242
    -7.0585  -6.3445  -5.5164  -5.2214  -4.9281  -4.7636  -4.6917  -4.5226
    -4.4634  -4.2103  -3.7684

          k = 0.3333-0.3333 0.0000 (164442 PWs)   bands (ev):

   -25.6884 -24.7502 -24.5539 -24.4300 -23.7209 -21.6766 -21.2491 -21.1419
   -20.5509 -18.3421 -17.8641 -16.8795 -16.4040 -15.4660 -14.3965 -14.0497
   -13.2038 -13.1769 -12.5514 -12.3688 -12.0047 -11.8375 -11.5114 -11.3547
   -11.0149 -10.6983 -10.6273 -10.3794 -10.2696 -10.0565  -9.8495  -9.7841
    -9.6199  -9.3285  -9.2232  -8.8743  -8.6604  -8.6234  -8.5234  -8.3894
    -8.3824  -8.3113  -8.1985  -8.1659  -7.9404  -7.3780  -7.1993  -7.1249
    -7.0582  -6.3446  -5.5164  -5.2215  -4.9281  -4.7635  -4.6916  -4.5226
    -4.4617  -4.2120  -3.7683

          k =-0.3333-0.3333 0.0000 (164442 PWs)   bands (ev):

   -25.6884 -24.7502 -24.5539 -24.4300 -23.7209 -21.6766 -21.2491 -21.1419
   -20.5509 -18.3421 -17.8641 -16.8795 -16.4040 -15.4660 -14.3965 -14.0497
   -13.2038 -13.1769 -12.5514 -12.3688 -12.0047 -11.8375 -11.5114 -11.3547
   -11.0149 -10.6983 -10.6273 -10.3794 -10.2696 -10.0565  -9.8495  -9.7841
    -9.6199  -9.3284  -9.2232  -8.8743  -8.6604  -8.6234  -8.5234  -8.3894
    -8.3824  -8.3113  -8.1985  -8.1659  -7.9404  -7.3780  -7.1993  -7.1249
    -7.0582  -6.3446  -5.5164  -5.2215  -4.9281  -4.7635  -4.6916  -4.5226
    -4.4617  -4.2120  -3.7683

          k =-0.3333-0.3333 0.3333 (164442 PWs)   bands (ev):

   -25.6884 -24.7502 -24.5539 -24.4300 -23.7209 -21.6766 -21.2491 -21.1419
   -20.5509 -18.3421 -17.8641 -16.8795 -16.4040 -15.4660 -14.3965 -14.0497
   -13.2037 -13.1770 -12.5514 -12.3688 -12.0047 -11.8376 -11.5114 -11.3547
   -11.0149 -10.6983 -10.6273 -10.3794 -10.2696 -10.0565  -9.8495  -9.7841
    -9.6199  -9.3284  -9.2232  -8.8743  -8.6605  -8.6233  -8.5233  -8.3894
    -8.3826  -8.3113  -8.1985  -8.1659  -7.9400  -7.3781  -7.1994  -7.1249
    -7.0582  -6.3446  -5.5164  -5.2214  -4.9281  -4.7636  -4.6916  -4.5226
    -4.4617  -4.2119  -3.7684

          k =-0.3333 0.3333-0.3333 (164442 PWs)   bands (ev):

   -25.6884 -24.7502 -24.5539 -24.4300 -23.7209 -21.6766 -21.2491 -21.1419
   -20.5509 -18.3421 -17.8641 -16.8795 -16.4040 -15.4660 -14.3965 -14.0497
   -13.2037 -13.1770 -12.5514 -12.3688 -12.0047 -11.8376 -11.5114 -11.3547
   -11.0149 -10.6983 -10.6274 -10.3794 -10.2696 -10.0565  -9.8495  -9.7841
    -9.6199  -9.3284  -9.2232  -8.8743  -8.6605  -8.6233  -8.5233  -8.3894
    -8.3826  -8.3113  -8.1985  -8.1659  -7.9401  -7.3781  -7.1994  -7.1249
    -7.0582  -6.3446  -5.5164  -5.2214  -4.9281  -4.7636  -4.6916  -4.5226
    -4.4617  -4.2119  -3.7684

          k = 0.3333-0.3333-0.3333 (164442 PWs)   bands (ev):

   -25.6884 -24.7502 -24.5539 -24.4300 -23.7209 -21.6766 -21.2491 -21.1419
   -20.5509 -18.3421 -17.8641 -16.8795 -16.4040 -15.4660 -14.3965 -14.0497
   -13.2037 -13.1770 -12.5514 -12.3688 -12.0047 -11.8376 -11.5114 -11.3547
   -11.0149 -10.6983 -10.6274 -10.3794 -10.2696 -10.0565  -9.8495  -9.7841
    -9.6199  -9.3284  -9.2232  -8.8743  -8.6605  -8.6233  -8.5233  -8.3892
    -8.3827  -8.3113  -8.1985  -8.1659  -7.9401  -7.3781  -7.1994  -7.1249
    -7.0582  -6.3446  -5.5164  -5.2214  -4.9281  -4.7636  -4.6916  -4.5226
    -4.4617  -4.2120  -3.7684

     highest occupied level (ev):    -3.7683

!    total energy              =    -544.20743886 Ry
     Harris-Foulkes estimate   =    -544.20743886 Ry
     estimated scf accuracy    <          3.3E-09 Ry

     total all-electron energy =     -2049.346304 Ry

     The total energy is the sum of the following terms:

     one-electron contribution =   -1106.18314782 Ry
     hartree contribution      =     576.36099278 Ry
     xc contribution           =    -124.83385120 Ry
     ewald contribution        =     252.51253138 Ry
     Dispersion Correction     =      -0.07027626 Ry
     one-center paw contrib.   =    -141.99368773 Ry

     convergence has been achieved in  13 iterations

     Writing output data file aiida.save

     init_run     :    114.68s CPU    139.15s WALL (       1 calls)
     electrons    :   3049.36s CPU   4604.86s WALL (       1 calls)

     Called by init_run:
     wfcinit      :    101.61s CPU    122.75s WALL (       1 calls)
     potinit      :      2.26s CPU      2.70s WALL (       1 calls)

     Called by electrons:
     c_bands      :   2594.20s CPU   3896.03s WALL (      13 calls)
     sum_band     :    357.55s CPU    563.87s WALL (      13 calls)
     v_of_rho     :     13.88s CPU     22.11s WALL (      14 calls)
     newd         :     82.66s CPU    116.93s WALL (      14 calls)
     mix_rho      :      2.85s CPU      4.96s WALL (      13 calls)

     Called by c_bands:
     init_us_2    :     11.78s CPU     16.86s WALL (     378 calls)
     cegterg      :   2568.24s CPU   3847.62s WALL (     182 calls)

     Called by *egterg:
     h_psi        :   1592.61s CPU   2350.25s WALL (     809 calls)
     s_psi        :    346.01s CPU    431.58s WALL (     809 calls)
     g_psi        :      2.42s CPU      3.06s WALL (     613 calls)
     cdiaghg      :     21.14s CPU     41.70s WALL (     795 calls)

     Called by h_psi:
     add_vuspsi   :    365.97s CPU    464.21s WALL (     809 calls)

     General routines
     calbec       :    479.14s CPU    689.83s WALL (     991 calls)
     fft          :     18.52s CPU     35.19s WALL (     220 calls)
     ffts         :      0.52s CPU      0.96s WALL (      27 calls)
     fftw         :    803.46s CPU   1402.04s WALL (   72446 calls)
     interpolate  :      2.48s CPU      4.00s WALL (      27 calls)
     davcio       :      0.02s CPU      0.25s WALL (      14 calls)

     Parallel routines
     fft_scatter  :    429.46s CPU   1000.63s WALL (   72693 calls)

     PAW routines
     PAW_pot      :      1.51s CPU      5.00s WALL (      14 calls)

     PWSCF        :     0h52m CPU        1h19m WALL


   This run was terminated on:   7:10:41  11Jan2023            

=------------------------------------------------------------------------------=
   JOB DONE.
=------------------------------------------------------------------------------=
