
     Program PWSCF v.5.1 starts on 13Jan2023 at 16: 8:15 

     This program is part of the open-source Quantum ESPRESSO suite
     for quantum simulation of materials; please cite
         "P. Giannozzi et al., J. Phys.:Condens. Matter 21 395502 (2009);
          URL http://www.quantum-espresso.org", 
     in publications or presentations arising from this work. More details at
     http://www.quantum-espresso.org/quote

     Parallel version (MPI), running on    16 processors
     R & G space division:  proc/nbgrp/npool/nimage =      16
     Waiting for input...
     Reading input from standard input

     Current dimensions of program PWSCF are:
     Max number of different atomic species (ntypx) = 10
     Max number of k-points (npk) =  40000
     Max angular momentum in pseudopotentials (lmaxx) =  3
               file C.pbesol-n-kjpaw_psl.1.0.0.UPF: wavefunction(s)  2S 2P renormalized
               file H.pbesol-kjpaw_psl.0.1.UPF: wavefunction(s)  1S renormalized
               file N.pbesol-n-kjpaw_psl.0.1.UPF: wavefunction(s)  2P renormalized
               file O.pbesol-n-kjpaw_psl.0.1.UPF: wavefunction(s)  2P renormalized

     Subspace diagonalization in iterative solution of the eigenvalue problem:
     scalapack distributed-memory algorithm (size of sub-group:  2*  2 procs)


     Parallelization info
     --------------------
     sticks:   dense  smooth     PW     G-vecs:    dense   smooth      PW
     Min        1812     905    235               232514    82196   10821
     Max        1813     906    236               232519    82229   10824
     Sum       29005   14485   3761              3720285  1315387  173157



     bravais-lattice index     =            0
     lattice parameter (alat)  =      22.5090  a.u.
     unit-cell volume          =   11404.2970 (a.u.)^3
     number of atoms/cell      =           32
     number of atomic types    =            4
     number of electrons       =        88.00
     number of Kohn-Sham states=           44
     kinetic-energy cutoff     =      90.0000  Ry
     charge density cutoff     =     720.0000  Ry
     convergence threshold     =      1.0E-08
     mixing beta               =       0.4000
     number of iterations used =            8  plain     mixing
     Exchange-correlation      =  SLA  PW   PSX  PSC ( 1  4 10  8 0)
     nstep                     =           50


     celldm(1)=  22.508999  celldm(2)=   0.000000  celldm(3)=   0.000000
     celldm(4)=   0.000000  celldm(5)=   0.000000  celldm(6)=   0.000000

     crystal axes: (cart. coord. in units of alat)
               a(1) = (   1.000000   0.000000   0.000000 )  
               a(2) = (   0.000000   1.000000   0.000000 )  
               a(3) = (   0.000000   0.000000   1.000000 )  

     reciprocal axes: (cart. coord. in units 2 pi/alat)
               b(1) = (  1.000000  0.000000  0.000000 )  
               b(2) = (  0.000000  1.000000  0.000000 )  
               b(3) = (  0.000000  0.000000  1.000000 )  


     PseudoPot. # 1 for  C read from file:
     ./pseudo/C.pbesol-n-kjpaw_psl.1.0.0.UPF
     MD5 check sum: 5f3a56537b2bcef3348431d8311bb923
     Pseudo is Projector augmented-wave + core cor, Zval =  4.0
     Generated using "atomic" code by A. Dal Corso  v.6.0 svn rev. 13079
     Shape of augmentation charge: PSQ
     Using radial grid of 1073 points,  4 beta functions with: 
                l(1) =   0
                l(2) =   0
                l(3) =   1
                l(4) =   1
     Q(r) pseudized with 0 coefficients 


     PseudoPot. # 2 for  H read from file:
     ./pseudo/H.pbesol-kjpaw_psl.0.1.UPF
     MD5 check sum: 27a6b98f1514c59d399e798f1258b8b7
     Pseudo is Projector augmented-wave, Zval =  1.0
     Generated using "atomic" code by A. Dal Corso  v.5.0.2 svn rev. 9415
     Shape of augmentation charge: PSQ
     Using radial grid of  929 points,  2 beta functions with: 
                l(1) =   0
                l(2) =   0
     Q(r) pseudized with 0 coefficients 


     PseudoPot. # 3 for  N read from file:
     ./pseudo/N.pbesol-n-kjpaw_psl.0.1.UPF
     MD5 check sum: 15bd223d5d75e9eda893d0f4e6bdad1b
     Pseudo is Projector augmented-wave + core cor, Zval =  5.0
     Generated using "atomic" code by A. Dal Corso  v.6.3
     Shape of augmentation charge: PSQ
     Using radial grid of 1085 points,  4 beta functions with: 
                l(1) =   0
                l(2) =   0
                l(3) =   1
                l(4) =   1
     Q(r) pseudized with 0 coefficients 


     PseudoPot. # 4 for  O read from file:
     ./pseudo/O.pbesol-n-kjpaw_psl.0.1.UPF
     MD5 check sum: 81d73d1479e654e5638b0319f0d6c2c7
     Pseudo is Projector augmented-wave + core cor, Zval =  6.0
     Generated using "atomic" code by A. Dal Corso  v.6.0 svn rev. 13079
     Shape of augmentation charge: BESSEL
     Using radial grid of 1095 points,  4 beta functions with: 
                l(1) =   0
                l(2) =   0
                l(3) =   1
                l(4) =   1
     Q(r) pseudized with 0 coefficients 


     atomic species   valence    mass     pseudopotential
        C              4.00    12.01070      C( 1.00)
        H              1.00     1.00794      H( 1.00)
        N              5.00    14.00670      N( 1.00)
        O              6.00    15.99940      O( 1.00)

     No symmetry found



   Cartesian axes

     site n.     atom                  positions (alat units)
         1           H   tau(   1) = (   0.6590510   0.8635640   0.7850250  )
         2           H   tau(   2) = (   0.6030540   0.9000000   0.6637950  )
         3           H   tau(   3) = (   0.7401510   0.7250390   0.7055200  )
         4           H   tau(   4) = (   0.7513170   0.7375490   0.5035260  )
         5           H   tau(   5) = (   0.5660300   0.6326900   0.7829260  )
         6           H   tau(   6) = (   0.6292480   0.5594820   0.6669850  )
         7           H   tau(   7) = (   0.4522720   0.5637630   0.6245880  )
         8           H   tau(   8) = (   0.6651800   0.2951100   0.4626400  )
         9           H   tau(   9) = (   0.4817400   0.2682440   0.4519780  )
        10           H   tau(  10) = (   0.5842480   0.1604470   0.2350400  )
        11           H   tau(  11) = (   0.4064330   0.3194560   0.2416730  )
        12           H   tau(  12) = (   0.5143140   0.4247350   0.2645920  )
        13           H   tau(  13) = (   0.4003880   0.4353970   0.4581070  )
        14           H   tau(  14) = (   0.2896530   0.3946800   0.3648340  )
        15           H   tau(  15) = (   0.6380630   0.4060130   0.3843110  )
        16           H   tau(  16) = (   0.2853710   0.6493130   0.2155630  )
        17           H   tau(  17) = (   0.2486830   0.5070940   0.2149750  )
        18           C   tau(  18) = (   0.6572040   0.7383040   0.6691680  )
        19           C   tau(  19) = (   0.6704690   0.7541710   0.5429850  )
        20           C   tau(  20) = (   0.5838280   0.6344530   0.6931790  )
        21           C   tau(  21) = (   0.5211980   0.2811730   0.3703750  )
        22           C   tau(  22) = (   0.5245570   0.1722850   0.3033790  )
        23           C   tau(  23) = (   0.4551260   0.3666390   0.3031270  )
        24           C   tau(  24) = (   0.3721800   0.4338020   0.3710460  )
        25           C   tau(  25) = (   0.3648760   0.5525130   0.3290690  )
        26           N   tau(  26) = (   0.6091830   0.8381260   0.7213870  )
        27           N   tau(  27) = (   0.6368040   0.3213040   0.3871650  )
        28           N   tau(  28) = (   0.2942700   0.5710670   0.2469620  )
        29           O   tau(  29) = (   0.5907130   0.7856540   0.4848880  )
        30           O   tau(  30) = (   0.4801450   0.6386510   0.6354180  )
        31           O   tau(  31) = (   0.4589880   0.1000000   0.3287330  )
        32           O   tau(  32) = (   0.4210410   0.6265610   0.3706270  )

     number of k points=    14
                       cart. coord. in units 2pi/alat
        k(    1) = (   0.0000000   0.0000000   0.0000000), wk =   0.0740741
        k(    2) = (   0.0000000   0.0000000   0.3333333), wk =   0.1481481
        k(    3) = (   0.0000000   0.3333333   0.3333333), wk =   0.1481481
        k(    4) = (   0.3333333   0.3333333   0.3333333), wk =   0.1481481
        k(    5) = (   0.3333333   0.0000000   0.0000000), wk =   0.1481481
        k(    6) = (   0.0000000   0.3333333   0.0000000), wk =   0.1481481
        k(    7) = (   0.0000000  -0.3333333   0.3333333), wk =   0.1481481
        k(    8) = (   0.3333333   0.0000000  -0.3333333), wk =   0.1481481
        k(    9) = (  -0.3333333   0.0000000  -0.3333333), wk =   0.1481481
        k(   10) = (   0.3333333  -0.3333333   0.0000000), wk =   0.1481481
        k(   11) = (  -0.3333333  -0.3333333   0.0000000), wk =   0.1481481
        k(   12) = (  -0.3333333  -0.3333333   0.3333333), wk =   0.1481481
        k(   13) = (  -0.3333333   0.3333333  -0.3333333), wk =   0.1481481
        k(   14) = (   0.3333333  -0.3333333  -0.3333333), wk =   0.1481481

     Dense  grid:  3720285 G-vectors     FFT dimensions: ( 200, 200, 200)

     Smooth grid:  1315387 G-vectors     FFT dimensions: ( 135, 135, 135)

     Largest allocated arrays     est. size (Mb)     dimensions
        Kohn-Sham Wavefunctions         6.91 Mb     (   10287,   44)
        NL pseudopotentials            24.17 Mb     (   10287,  154)
        Each V/rho on FFT grid          7.93 Mb     (  520000)
        Each G-vector array             1.77 Mb     (  232519)
        G-vector shells                 0.06 Mb     (    7589)
     Largest temporary arrays     est. size (Mb)     dimensions
        Auxiliary wavefunctions        27.63 Mb     (   10287,  176)
        Each subspace H/S matrix        0.12 Mb     (      88,   88)
        Each <psi_i|beta_j> matrix      0.10 Mb     (     154,   44)
        Arrays for rho mixing          63.48 Mb     (  520000,    8)

     Initial potential from superposition of free atoms
     Check: negative starting charge=   -0.000121

     starting charge   87.99945, renormalised to   88.00000

     negative rho (up, down):  1.212E-04 0.000E+00
     Starting wfc are   77 randomized atomic wfcs
     Checking if some PAW data can be deallocated... 

     total cpu time spent up to now is      160.8 secs

     per-process dynamical memory:   251.1 Mb

     Self-consistent Calculation

     iteration #  1     ecut=    90.00 Ry     beta=0.40
     Davidson diagonalization with overlap
     ethr =  1.00E-02,  avg # of iterations =  2.0

     negative rho (up, down):  1.808E-04 0.000E+00

     total cpu time spent up to now is      480.3 secs

     total energy              =    -412.01504773 Ry
     Harris-Foulkes estimate   =    -414.00919196 Ry
     estimated scf accuracy    <       4.10380637 Ry

     iteration #  2     ecut=    90.00 Ry     beta=0.40
     Davidson diagonalization with overlap
     ethr =  4.66E-03,  avg # of iterations =  3.0

     negative rho (up, down):  2.384E-04 0.000E+00

     total cpu time spent up to now is      793.4 secs

     total energy              =    -412.58050174 Ry
     Harris-Foulkes estimate   =    -412.74427931 Ry
     estimated scf accuracy    <       0.45344642 Ry

     iteration #  3     ecut=    90.00 Ry     beta=0.40
     Davidson diagonalization with overlap
     ethr =  5.15E-04,  avg # of iterations =  4.0

     negative rho (up, down):  3.231E-04 0.000E+00

     total cpu time spent up to now is      963.9 secs

     total energy              =    -412.59179467 Ry
     Harris-Foulkes estimate   =    -412.64496709 Ry
     estimated scf accuracy    <       0.14393179 Ry

     iteration #  4     ecut=    90.00 Ry     beta=0.40
     Davidson diagonalization with overlap
     ethr =  1.64E-04,  avg # of iterations =  4.0

     negative rho (up, down):  4.057E-04 0.000E+00

     total cpu time spent up to now is     1112.4 secs

     total energy              =    -412.59767813 Ry
     Harris-Foulkes estimate   =    -412.60947240 Ry
     estimated scf accuracy    <       0.03177253 Ry

     iteration #  5     ecut=    90.00 Ry     beta=0.40
     Davidson diagonalization with overlap
     ethr =  3.61E-05,  avg # of iterations =  4.0

     negative rho (up, down):  4.126E-04 0.000E+00

     total cpu time spent up to now is     1289.3 secs

     total energy              =    -412.60135152 Ry
     Harris-Foulkes estimate   =    -412.60269390 Ry
     estimated scf accuracy    <       0.00293977 Ry

     iteration #  6     ecut=    90.00 Ry     beta=0.40
     Davidson diagonalization with overlap
     ethr =  3.34E-06,  avg # of iterations =  4.0

     negative rho (up, down):  4.175E-04 0.000E+00

     total cpu time spent up to now is     1489.0 secs

     total energy              =    -412.60200197 Ry
     Harris-Foulkes estimate   =    -412.60218406 Ry
     estimated scf accuracy    <       0.00055738 Ry

     iteration #  7     ecut=    90.00 Ry     beta=0.40
     Davidson diagonalization with overlap
     ethr =  6.33E-07,  avg # of iterations =  4.0

     negative rho (up, down):  4.146E-04 0.000E+00

     total cpu time spent up to now is     1666.5 secs

     total energy              =    -412.60207898 Ry
     Harris-Foulkes estimate   =    -412.60213081 Ry
     estimated scf accuracy    <       0.00013850 Ry

     iteration #  8     ecut=    90.00 Ry     beta=0.40
     Davidson diagonalization with overlap
     ethr =  1.57E-07,  avg # of iterations =  3.9

     negative rho (up, down):  4.121E-04 0.000E+00

     total cpu time spent up to now is     1844.1 secs

     total energy              =    -412.60210409 Ry
     Harris-Foulkes estimate   =    -412.60210586 Ry
     estimated scf accuracy    <       0.00001398 Ry

     iteration #  9     ecut=    90.00 Ry     beta=0.40
     Davidson diagonalization with overlap
     ethr =  1.59E-08,  avg # of iterations =  3.0

     negative rho (up, down):  4.111E-04 0.000E+00

     total cpu time spent up to now is     2028.9 secs

     total energy              =    -412.60210622 Ry
     Harris-Foulkes estimate   =    -412.60210661 Ry
     estimated scf accuracy    <       0.00000280 Ry

     iteration # 10     ecut=    90.00 Ry     beta=0.40
     Davidson diagonalization with overlap
     ethr =  3.18E-09,  avg # of iterations =  3.6

     negative rho (up, down):  4.103E-04 0.000E+00

     total cpu time spent up to now is     2210.1 secs

     total energy              =    -412.60210682 Ry
     Harris-Foulkes estimate   =    -412.60210681 Ry
     estimated scf accuracy    <       0.00000045 Ry

     iteration # 11     ecut=    90.00 Ry     beta=0.40
     Davidson diagonalization with overlap
     ethr =  5.07E-10,  avg # of iterations =  3.0

     negative rho (up, down):  4.101E-04 0.000E+00

     total cpu time spent up to now is     2374.2 secs

     total energy              =    -412.60210687 Ry
     Harris-Foulkes estimate   =    -412.60210687 Ry
     estimated scf accuracy    <       0.00000004 Ry

     iteration # 12     ecut=    90.00 Ry     beta=0.40
     Davidson diagonalization with overlap
     ethr =  4.72E-11,  avg # of iterations =  4.0

     negative rho (up, down):  4.103E-04 0.000E+00

     total cpu time spent up to now is     2591.7 secs

     End of self-consistent calculation

          k = 0.0000 0.0000 0.0000 (164415 PWs)   bands (ev):

   -25.2596 -24.9027 -24.6299 -24.2070 -21.8842 -21.5774 -21.1508 -18.9967
   -17.2186 -16.7791 -14.8763 -14.7718 -13.7299 -13.2463 -12.6436 -12.5894
   -12.1404 -11.8656 -11.2326 -11.1815 -10.6622 -10.4701 -10.4394  -9.8161
    -9.6454  -9.3290  -9.2132  -9.0882  -8.9487  -8.7112  -8.5003  -8.2080
    -7.8075  -7.7513  -7.6562  -7.4954  -6.6722  -5.5065  -5.2191  -5.1215
    -4.8309  -4.5735  -4.3551  -4.0497

          k = 0.0000 0.0000 0.3333 (164448 PWs)   bands (ev):

   -25.2596 -24.9027 -24.6299 -24.2070 -21.8842 -21.5774 -21.1508 -18.9967
   -17.2186 -16.7791 -14.8763 -14.7718 -13.7299 -13.2463 -12.6436 -12.5894
   -12.1404 -11.8656 -11.2326 -11.1815 -10.6622 -10.4701 -10.4394  -9.8161
    -9.6454  -9.3290  -9.2132  -9.0882  -8.9487  -8.7112  -8.5003  -8.2080
    -7.8076  -7.7513  -7.6562  -7.4954  -6.6722  -5.5065  -5.2191  -5.1215
    -4.8310  -4.5735  -4.3551  -4.0496

          k = 0.0000 0.3333 0.3333 (164442 PWs)   bands (ev):

   -25.2596 -24.9027 -24.6299 -24.2070 -21.8842 -21.5774 -21.1508 -18.9967
   -17.2186 -16.7791 -14.8763 -14.7717 -13.7299 -13.2463 -12.6436 -12.5895
   -12.1404 -11.8657 -11.2328 -11.1814 -10.6621 -10.4700 -10.4390  -9.8169
    -9.6453  -9.3299  -9.2128  -9.0882  -8.9487  -8.7110  -8.4999  -8.2069
    -7.8073  -7.7565  -7.6524  -7.4954  -6.6721  -5.5064  -5.2191  -5.1214
    -4.8311  -4.5712  -4.3574  -4.0497

          k = 0.3333 0.3333 0.3333 (164442 PWs)   bands (ev):

   -25.2596 -24.9027 -24.6299 -24.2070 -21.8842 -21.5774 -21.1508 -18.9967
   -17.2186 -16.7791 -14.8763 -14.7717 -13.7299 -13.2463 -12.6436 -12.5895
   -12.1404 -11.8657 -11.2328 -11.1814 -10.6621 -10.4700 -10.4390  -9.8169
    -9.6453  -9.3299  -9.2128  -9.0882  -8.9487  -8.7110  -8.4999  -8.2069
    -7.8073  -7.7565  -7.6524  -7.4954  -6.6721  -5.5065  -5.2191  -5.1214
    -4.8311  -4.5712  -4.3573  -4.0497

          k = 0.3333 0.0000 0.0000 (164448 PWs)   bands (ev):

   -25.2596 -24.9027 -24.6299 -24.2070 -21.8842 -21.5774 -21.1508 -18.9967
   -17.2186 -16.7791 -14.8763 -14.7718 -13.7299 -13.2463 -12.6436 -12.5894
   -12.1404 -11.8656 -11.2326 -11.1815 -10.6622 -10.4701 -10.4394  -9.8161
    -9.6454  -9.3290  -9.2132  -9.0882  -8.9487  -8.7112  -8.5003  -8.2080
    -7.8075  -7.7513  -7.6562  -7.4954  -6.6722  -5.5065  -5.2191  -5.1215
    -4.8309  -4.5735  -4.3550  -4.0497

          k = 0.0000 0.3333 0.0000 (164448 PWs)   bands (ev):

   -25.2596 -24.9027 -24.6299 -24.2070 -21.8842 -21.5774 -21.1508 -18.9967
   -17.2186 -16.7791 -14.8763 -14.7717 -13.7299 -13.2463 -12.6436 -12.5895
   -12.1404 -11.8657 -11.2328 -11.1814 -10.6621 -10.4700 -10.4390  -9.8169
    -9.6453  -9.3299  -9.2128  -9.0882  -8.9487  -8.7110  -8.4999  -8.2069
    -7.8073  -7.7565  -7.6524  -7.4954  -6.6721  -5.5065  -5.2191  -5.1214
    -4.8311  -4.5712  -4.3573  -4.0498

          k = 0.0000-0.3333 0.3333 (164442 PWs)   bands (ev):

   -25.2596 -24.9027 -24.6299 -24.2070 -21.8842 -21.5774 -21.1508 -18.9967
   -17.2186 -16.7791 -14.8763 -14.7717 -13.7299 -13.2463 -12.6436 -12.5895
   -12.1404 -11.8657 -11.2328 -11.1814 -10.6621 -10.4700 -10.4390  -9.8169
    -9.6453  -9.3299  -9.2128  -9.0882  -8.9487  -8.7110  -8.4999  -8.2069
    -7.8073  -7.7565  -7.6524  -7.4954  -6.6721  -5.5064  -5.2191  -5.1214
    -4.8311  -4.5712  -4.3574  -4.0497

          k = 0.3333 0.0000-0.3333 (164442 PWs)   bands (ev):

   -25.2596 -24.9027 -24.6299 -24.2070 -21.8842 -21.5774 -21.1508 -18.9967
   -17.2186 -16.7791 -14.8763 -14.7718 -13.7299 -13.2463 -12.6436 -12.5894
   -12.1404 -11.8656 -11.2326 -11.1815 -10.6622 -10.4701 -10.4394  -9.8161
    -9.6454  -9.3290  -9.2132  -9.0882  -8.9487  -8.7112  -8.5003  -8.2080
    -7.8075  -7.7513  -7.6562  -7.4954  -6.6722  -5.5065  -5.2191  -5.1216
    -4.8310  -4.5735  -4.3551  -4.0496

          k =-0.3333 0.0000-0.3333 (164442 PWs)   bands (ev):

   -25.2596 -24.9027 -24.6299 -24.2070 -21.8842 -21.5774 -21.1508 -18.9967
   -17.2186 -16.7791 -14.8763 -14.7718 -13.7299 -13.2463 -12.6436 -12.5894
   -12.1404 -11.8656 -11.2326 -11.1815 -10.6622 -10.4701 -10.4394  -9.8161
    -9.6454  -9.3290  -9.2132  -9.0882  -8.9487  -8.7112  -8.5003  -8.2080
    -7.8075  -7.7513  -7.6562  -7.4954  -6.6722  -5.5065  -5.2191  -5.1216
    -4.8310  -4.5735  -4.3551  -4.0496

          k = 0.3333-0.3333 0.0000 (164442 PWs)   bands (ev):

   -25.2596 -24.9027 -24.6299 -24.2070 -21.8842 -21.5774 -21.1508 -18.9967
   -17.2186 -16.7791 -14.8763 -14.7717 -13.7299 -13.2463 -12.6436 -12.5895
   -12.1404 -11.8657 -11.2328 -11.1814 -10.6621 -10.4700 -10.4390  -9.8169
    -9.6453  -9.3299  -9.2128  -9.0882  -8.9487  -8.7110  -8.4999  -8.2069
    -7.8073  -7.7565  -7.6524  -7.4954  -6.6721  -5.5065  -5.2191  -5.1214
    -4.8311  -4.5712  -4.3573  -4.0498

          k =-0.3333-0.3333 0.0000 (164442 PWs)   bands (ev):

   -25.2596 -24.9027 -24.6299 -24.2070 -21.8842 -21.5774 -21.1508 -18.9967
   -17.2186 -16.7791 -14.8763 -14.7717 -13.7299 -13.2463 -12.6436 -12.5895
   -12.1404 -11.8657 -11.2328 -11.1814 -10.6621 -10.4700 -10.4390  -9.8169
    -9.6453  -9.3299  -9.2128  -9.0882  -8.9487  -8.7110  -8.4999  -8.2069
    -7.8073  -7.7565  -7.6524  -7.4954  -6.6721  -5.5065  -5.2191  -5.1214
    -4.8311  -4.5712  -4.3573  -4.0498

          k =-0.3333-0.3333 0.3333 (164442 PWs)   bands (ev):

   -25.2596 -24.9027 -24.6299 -24.2070 -21.8842 -21.5774 -21.1508 -18.9967
   -17.2186 -16.7791 -14.8763 -14.7717 -13.7299 -13.2463 -12.6436 -12.5895
   -12.1404 -11.8657 -11.2328 -11.1814 -10.6621 -10.4700 -10.4390  -9.8169
    -9.6453  -9.3299  -9.2128  -9.0882  -8.9487  -8.7110  -8.4999  -8.2069
    -7.8073  -7.7565  -7.6524  -7.4954  -6.6721  -5.5065  -5.2191  -5.1214
    -4.8311  -4.5712  -4.3573  -4.0497

          k =-0.3333 0.3333-0.3333 (164442 PWs)   bands (ev):

   -25.2596 -24.9027 -24.6299 -24.2070 -21.8842 -21.5774 -21.1508 -18.9967
   -17.2186 -16.7791 -14.8763 -14.7717 -13.7299 -13.2463 -12.6436 -12.5895
   -12.1404 -11.8657 -11.2328 -11.1814 -10.6621 -10.4700 -10.4390  -9.8169
    -9.6453  -9.3299  -9.2128  -9.0882  -8.9487  -8.7110  -8.4999  -8.2069
    -7.8073  -7.7565  -7.6524  -7.4954  -6.6721  -5.5065  -5.2191  -5.1214
    -4.8311  -4.5712  -4.3573  -4.0497

          k = 0.3333-0.3333-0.3333 (164442 PWs)   bands (ev):

   -25.2596 -24.9027 -24.6299 -24.2070 -21.8842 -21.5774 -21.1508 -18.9967
   -17.2186 -16.7791 -14.8763 -14.7717 -13.7299 -13.2463 -12.6436 -12.5895
   -12.1404 -11.8657 -11.2328 -11.1814 -10.6621 -10.4700 -10.4390  -9.8169
    -9.6453  -9.3299  -9.2128  -9.0882  -8.9487  -8.7110  -8.4999  -8.2069
    -7.8073  -7.7565  -7.6524  -7.4954  -6.6721  -5.5065  -5.2191  -5.1214
    -4.8311  -4.5712  -4.3573  -4.0497

     highest occupied level (ev):    -4.0496

!    total energy              =    -412.60210689 Ry
     Harris-Foulkes estimate   =    -412.60210689 Ry
     estimated scf accuracy    <          7.6E-09 Ry

     total all-electron energy =     -1554.227008 Ry

     The total energy is the sum of the following terms:

     one-electron contribution =    -976.46631529 Ry
     hartree contribution      =     505.23266556 Ry
     xc contribution           =     -93.92708623 Ry
     ewald contribution        =     259.87034788 Ry
     one-center paw contrib.   =    -107.31171881 Ry

     convergence has been achieved in  12 iterations

     Forces acting on atoms (Ry/au):


     negative rho (up, down):  4.103E-04 0.000E+00
     atom    1 type  2   force =     0.00839440    0.01190153    0.01189311
     atom    2 type  2   force =    -0.01018740    0.01952446   -0.00988944
     atom    3 type  2   force =     0.01792199   -0.01988147    0.00407708
     atom    4 type  2   force =     0.03442350   -0.01317852   -0.00988025
     atom    5 type  2   force =     0.01053362   -0.00186253    0.02565429
     atom    6 type  2   force =     0.01821129   -0.01998460    0.00295055
     atom    7 type  2   force =    -0.00255101   -0.01477056   -0.00396717
     atom    8 type  2   force =     0.01414973   -0.00164575    0.01516757
     atom    9 type  2   force =    -0.01951193   -0.02068722    0.00611863
     atom   10 type  2   force =     0.02901771    0.01024756   -0.02560412
     atom   11 type  2   force =     0.00168427    0.00419957   -0.02984715
     atom   12 type  2   force =     0.01115070    0.00137051   -0.02276480
     atom   13 type  2   force =    -0.00468925    0.00878143    0.01411818
     atom   14 type  2   force =    -0.01400103   -0.01130691    0.01290943
     atom   15 type  2   force =     0.00762614    0.02253166    0.00505336
     atom   16 type  2   force =     0.00078148    0.01005368   -0.00477700
     atom   17 type  2   force =    -0.00939424    0.00043912   -0.00865471
     atom   18 type  1   force =    -0.01632078   -0.00161616   -0.00889044
     atom   19 type  1   force =    -0.09454749    0.02809282   -0.01440130
     atom   20 type  1   force =    -0.01279816    0.00511424   -0.02340969
     atom   21 type  1   force =     0.06394497    0.01312038   -0.02199818
     atom   22 type  1   force =    -0.03029109    0.02483746    0.06182142
     atom   23 type  1   force =    -0.00820075   -0.01498797    0.00043654
     atom   24 type  1   force =    -0.00908735   -0.00030102    0.00106137
     atom   25 type  1   force =     0.03525415   -0.01484172    0.06802637
     atom   26 type  3   force =    -0.01165275   -0.01138418   -0.00399845
     atom   27 type  3   force =    -0.01585011   -0.01381594   -0.01496597
     atom   28 type  3   force =    -0.06395316   -0.00554293   -0.07157317
     atom   29 type  4   force =     0.05682774   -0.00857784    0.03161278
     atom   30 type  4   force =     0.00453228    0.03077647    0.00283180
     atom   31 type  4   force =    -0.02725784   -0.05067417   -0.00679318
     atom   32 type  4   force =     0.03584036    0.03406861    0.01768252

     Total force =     0.245271     Total SCF correction =     0.000183

     BFGS Geometry Optimization

     number of scf cycles    =   1
     number of bfgs steps    =   0

     energy   new            =    -412.6021068909 Ry

     new trust radius        =       0.0996786430 bohr
     new conv_thr            =       0.0000000100 Ry


ATOMIC_POSITIONS (crystal)
H        0.659423935   0.864092745   0.785553372
H        0.602601408   0.900867407   0.663355645
H        0.740947215   0.724155732   0.705701131
H        0.752846322   0.736963522   0.503087054
H        0.566497974   0.632607254   0.784065735
H        0.630057067   0.558594151   0.667116083
H        0.452158667   0.563106793   0.624411752
H        0.665808626   0.295036885   0.463313845
H        0.480873150   0.267324935   0.452249830
H        0.585537161   0.160902265   0.233902494
H        0.406507827   0.319642573   0.240346990
H        0.514809389   0.424795887   0.263580636
H        0.400179672   0.435787130   0.458734224
H        0.289030981   0.394177672   0.365407523
H        0.638401804   0.407014007   0.384535504
H        0.285405719   0.649759652   0.215350774
H        0.248265645   0.507113509   0.214590500
C        0.656478922   0.738232199   0.668773027
C        0.666268569   0.755419071   0.542345198
C        0.583259420   0.634680209   0.692138985
C        0.524038862   0.281755895   0.369397694
C        0.523211267   0.173388446   0.306125520
C        0.454761668   0.365973134   0.303146394
C        0.371776279   0.433788627   0.371093153
C        0.366442225   0.551853632   0.332091185
N        0.608665307   0.837620239   0.721209362
N        0.636099832   0.320690204   0.386500112
N        0.291428773   0.570820746   0.243782242
O        0.593237668   0.785272915   0.486292451
O        0.480346354   0.640018296   0.635543808
O        0.457777025   0.097748715   0.328431202
O        0.422633268   0.628074555   0.371412576



     Writing output data file aiida.save
     Check: negative starting charge=   -0.000121
     NEW-OLD atomic charge density approx. for the potential
     Check: negative starting charge=   -0.000121

     negative rho (up, down):  3.697E-04 0.000E+00

     total cpu time spent up to now is     2655.2 secs

     per-process dynamical memory:   286.2 Mb

     Self-consistent Calculation

     iteration #  1     ecut=    90.00 Ry     beta=0.40
     Davidson diagonalization with overlap
     ethr =  1.00E-06,  avg # of iterations =  9.0

     negative rho (up, down):  3.747E-04 0.000E+00

     total cpu time spent up to now is     3134.4 secs

     total energy              =    -412.60321661 Ry
     Harris-Foulkes estimate   =    -412.59650568 Ry
     estimated scf accuracy    <       0.02230917 Ry

     iteration #  2     ecut=    90.00 Ry     beta=0.40
     Davidson diagonalization with overlap
     ethr =  2.54E-05,  avg # of iterations =  4.0

     negative rho (up, down):  3.816E-04 0.000E+00

     total cpu time spent up to now is     3291.5 secs

     total energy              =    -412.60524088 Ry
     Harris-Foulkes estimate   =    -412.60645947 Ry
     estimated scf accuracy    <       0.00319793 Ry

     iteration #  3     ecut=    90.00 Ry     beta=0.40
     Davidson diagonalization with overlap
     ethr =  3.63E-06,  avg # of iterations =  4.0

     negative rho (up, down):  3.890E-04 0.000E+00

     total cpu time spent up to now is     3461.5 secs

     total energy              =    -412.60544222 Ry
     Harris-Foulkes estimate   =    -412.60572786 Ry
     estimated scf accuracy    <       0.00083172 Ry

     iteration #  4     ecut=    90.00 Ry     beta=0.40
     Davidson diagonalization with overlap
     ethr =  9.45E-07,  avg # of iterations =  4.0

     negative rho (up, down):  3.950E-04 0.000E+00

     total cpu time spent up to now is     3618.2 secs

     total energy              =    -412.60552906 Ry
     Harris-Foulkes estimate   =    -412.60555681 Ry
     estimated scf accuracy    <       0.00010340 Ry

     iteration #  5     ecut=    90.00 Ry     beta=0.40
     Davidson diagonalization with overlap
     ethr =  1.18E-07,  avg # of iterations =  4.0

     negative rho (up, down):  3.977E-04 0.000E+00

     total cpu time spent up to now is     3794.5 secs

     total energy              =    -412.60554290 Ry
     Harris-Foulkes estimate   =    -412.60554972 Ry
     estimated scf accuracy    <       0.00002438 Ry

     iteration #  6     ecut=    90.00 Ry     beta=0.40
     Davidson diagonalization with overlap
     ethr =  2.77E-08,  avg # of iterations =  4.0

     negative rho (up, down):  4.001E-04 0.000E+00

     total cpu time spent up to now is     3956.9 secs

     total energy              =    -412.60554617 Ry
     Harris-Foulkes estimate   =    -412.60554674 Ry
     estimated scf accuracy    <       0.00000368 Ry

     iteration #  7     ecut=    90.00 Ry     beta=0.40
     Davidson diagonalization with overlap
     ethr =  4.18E-09,  avg # of iterations =  2.6

     negative rho (up, down):  4.013E-04 0.000E+00

     total cpu time spent up to now is     4122.5 secs

     total energy              =    -412.60554666 Ry
     Harris-Foulkes estimate   =    -412.60554674 Ry
     estimated scf accuracy    <       0.00000051 Ry

     iteration #  8     ecut=    90.00 Ry     beta=0.40
     Davidson diagonalization with overlap
     ethr =  5.77E-10,  avg # of iterations =  4.0

     negative rho (up, down):  4.020E-04 0.000E+00

     total cpu time spent up to now is     4294.8 secs

     total energy              =    -412.60554674 Ry
     Harris-Foulkes estimate   =    -412.60554674 Ry
     estimated scf accuracy    <       0.00000008 Ry

     iteration #  9     ecut=    90.00 Ry     beta=0.40
     Davidson diagonalization with overlap
     ethr =  9.10E-11,  avg # of iterations =  4.0

     negative rho (up, down):  4.023E-04 0.000E+00

     total cpu time spent up to now is     4476.3 secs

     total energy              =    -412.60554675 Ry
     Harris-Foulkes estimate   =    -412.60554675 Ry
     estimated scf accuracy    <       0.00000001 Ry

     iteration # 10     ecut=    90.00 Ry     beta=0.40
     Davidson diagonalization with overlap
     ethr =  1.14E-11,  avg # of iterations =  3.9

     negative rho (up, down):  4.028E-04 0.000E+00

     total cpu time spent up to now is     4651.4 secs

     End of self-consistent calculation

          k = 0.0000 0.0000 0.0000 (164415 PWs)   bands (ev):

   -25.8272 -25.0144 -24.8058 -24.3556 -21.9028 -21.4932 -21.1183 -19.1044
   -17.1169 -16.9803 -14.9027 -14.6453 -13.4033 -12.9714 -12.5486 -12.3743
   -12.1798 -12.0220 -11.2490 -11.2193 -10.7732 -10.5271 -10.4705  -9.8480
    -9.7881  -9.4695  -9.1603  -9.0395  -8.9526  -8.7235  -8.6168  -8.4402
    -8.1638  -7.8584  -7.7140  -7.5304  -6.7640  -5.5199  -5.2899  -5.1774
    -4.9036  -4.7739  -4.5387  -4.0002

          k = 0.0000 0.0000 0.3333 (164448 PWs)   bands (ev):

   -25.8272 -25.0144 -24.8058 -24.3556 -21.9028 -21.4932 -21.1183 -19.1044
   -17.1169 -16.9803 -14.9027 -14.6453 -13.4033 -12.9714 -12.5486 -12.3743
   -12.1798 -12.0220 -11.2490 -11.2193 -10.7732 -10.5271 -10.4705  -9.8480
    -9.7881  -9.4695  -9.1603  -9.0395  -8.9526  -8.7235  -8.6168  -8.4403
    -8.1638  -7.8584  -7.7140  -7.5304  -6.7639  -5.5199  -5.2899  -5.1775
    -4.9035  -4.7740  -4.5387  -4.0000

          k = 0.0000 0.3333 0.3333 (164442 PWs)   bands (ev):

   -25.8272 -25.0144 -24.8058 -24.3556 -21.9028 -21.4932 -21.1183 -19.1044
   -17.1169 -16.9803 -14.9027 -14.6453 -13.4033 -12.9714 -12.5486 -12.3743
   -12.1798 -12.0221 -11.2494 -11.2190 -10.7727 -10.5272 -10.4704  -9.8508
    -9.7860  -9.4694  -9.1606  -9.0398  -8.9526  -8.7227  -8.6164  -8.4401
    -8.1646  -7.8585  -7.7138  -7.5304  -6.7639  -5.5199  -5.2900  -5.1772
    -4.9039  -4.7722  -4.5404  -4.0001

          k = 0.3333 0.3333 0.3333 (164442 PWs)   bands (ev):

   -25.8272 -25.0144 -24.8058 -24.3556 -21.9028 -21.4932 -21.1183 -19.1044
   -17.1169 -16.9803 -14.9027 -14.6453 -13.4033 -12.9714 -12.5486 -12.3743
   -12.1798 -12.0221 -11.2494 -11.2190 -10.7727 -10.5272 -10.4704  -9.8508
    -9.7860  -9.4694  -9.1607  -9.0398  -8.9526  -8.7227  -8.6164  -8.4401
    -8.1646  -7.8585  -7.7138  -7.5304  -6.7639  -5.5199  -5.2900  -5.1772
    -4.9038  -4.7722  -4.5404  -4.0001

          k = 0.3333 0.0000 0.0000 (164448 PWs)   bands (ev):

   -25.8272 -25.0144 -24.8058 -24.3556 -21.9028 -21.4932 -21.1183 -19.1044
   -17.1169 -16.9803 -14.9027 -14.6453 -13.4033 -12.9714 -12.5486 -12.3743
   -12.1798 -12.0220 -11.2490 -11.2193 -10.7732 -10.5271 -10.4705  -9.8480
    -9.7881  -9.4695  -9.1604  -9.0395  -8.9526  -8.7235  -8.6168  -8.4402
    -8.1638  -7.8584  -7.7140  -7.5304  -6.7640  -5.5200  -5.2899  -5.1774
    -4.9035  -4.7739  -4.5387  -4.0002

          k = 0.0000 0.3333 0.0000 (164448 PWs)   bands (ev):

   -25.8272 -25.0144 -24.8058 -24.3556 -21.9028 -21.4932 -21.1183 -19.1044
   -17.1169 -16.9803 -14.9027 -14.6453 -13.4033 -12.9714 -12.5486 -12.3743
   -12.1798 -12.0221 -11.2494 -11.2190 -10.7727 -10.5272 -10.4704  -9.8508
    -9.7860  -9.4694  -9.1606  -9.0398  -8.9526  -8.7228  -8.6164  -8.4401
    -8.1646  -7.8585  -7.7138  -7.5304  -6.7640  -5.5200  -5.2900  -5.1771
    -4.9039  -4.7722  -4.5404  -4.0002

          k = 0.0000-0.3333 0.3333 (164442 PWs)   bands (ev):

   -25.8272 -25.0144 -24.8058 -24.3556 -21.9028 -21.4932 -21.1183 -19.1044
   -17.1169 -16.9803 -14.9027 -14.6453 -13.4033 -12.9714 -12.5486 -12.3743
   -12.1798 -12.0221 -11.2494 -11.2190 -10.7727 -10.5272 -10.4704  -9.8508
    -9.7860  -9.4694  -9.1606  -9.0398  -8.9526  -8.7227  -8.6164  -8.4401
    -8.1646  -7.8585  -7.7138  -7.5304  -6.7639  -5.5199  -5.2900  -5.1772
    -4.9039  -4.7722  -4.5404  -4.0001

          k = 0.3333 0.0000-0.3333 (164442 PWs)   bands (ev):

   -25.8272 -25.0144 -24.8058 -24.3556 -21.9028 -21.4932 -21.1183 -19.1044
   -17.1169 -16.9803 -14.9027 -14.6453 -13.4033 -12.9714 -12.5486 -12.3743
   -12.1798 -12.0220 -11.2490 -11.2193 -10.7732 -10.5271 -10.4705  -9.8480
    -9.7881  -9.4695  -9.1604  -9.0395  -8.9526  -8.7235  -8.6168  -8.4403
    -8.1638  -7.8584  -7.7140  -7.5304  -6.7639  -5.5199  -5.2899  -5.1775
    -4.9035  -4.7740  -4.5387  -4.0001

          k =-0.3333 0.0000-0.3333 (164442 PWs)   bands (ev):

   -25.8272 -25.0144 -24.8058 -24.3556 -21.9028 -21.4932 -21.1183 -19.1044
   -17.1169 -16.9803 -14.9027 -14.6453 -13.4033 -12.9714 -12.5486 -12.3743
   -12.1798 -12.0220 -11.2490 -11.2193 -10.7732 -10.5271 -10.4705  -9.8480
    -9.7881  -9.4695  -9.1604  -9.0395  -8.9526  -8.7235  -8.6168  -8.4403
    -8.1638  -7.8584  -7.7140  -7.5304  -6.7639  -5.5199  -5.2899  -5.1775
    -4.9035  -4.7740  -4.5387  -4.0001

          k = 0.3333-0.3333 0.0000 (164442 PWs)   bands (ev):

   -25.8272 -25.0144 -24.8058 -24.3556 -21.9028 -21.4932 -21.1183 -19.1044
   -17.1169 -16.9803 -14.9027 -14.6453 -13.4033 -12.9714 -12.5487 -12.3743
   -12.1798 -12.0221 -11.2494 -11.2190 -10.7727 -10.5272 -10.4704  -9.8508
    -9.7860  -9.4694  -9.1607  -9.0398  -8.9526  -8.7228  -8.6164  -8.4401
    -8.1646  -7.8584  -7.7138  -7.5304  -6.7640  -5.5200  -5.2900  -5.1771
    -4.9039  -4.7722  -4.5404  -4.0002

          k =-0.3333-0.3333 0.0000 (164442 PWs)   bands (ev):

   -25.8272 -25.0144 -24.8058 -24.3556 -21.9028 -21.4932 -21.1183 -19.1044
   -17.1169 -16.9803 -14.9027 -14.6453 -13.4033 -12.9714 -12.5487 -12.3743
   -12.1798 -12.0221 -11.2494 -11.2190 -10.7727 -10.5272 -10.4704  -9.8508
    -9.7860  -9.4694  -9.1607  -9.0398  -8.9526  -8.7228  -8.6164  -8.4401
    -8.1646  -7.8584  -7.7138  -7.5304  -6.7640  -5.5200  -5.2900  -5.1771
    -4.9039  -4.7722  -4.5404  -4.0002

          k =-0.3333-0.3333 0.3333 (164442 PWs)   bands (ev):

   -25.8272 -25.0144 -24.8058 -24.3556 -21.9028 -21.4932 -21.1183 -19.1044
   -17.1169 -16.9803 -14.9027 -14.6453 -13.4033 -12.9714 -12.5487 -12.3743
   -12.1798 -12.0221 -11.2494 -11.2190 -10.7727 -10.5272 -10.4704  -9.8508
    -9.7860  -9.4694  -9.1607  -9.0398  -8.9526  -8.7227  -8.6164  -8.4401
    -8.1646  -7.8585  -7.7138  -7.5304  -6.7639  -5.5199  -5.2900  -5.1772
    -4.9039  -4.7722  -4.5404  -4.0001

          k =-0.3333 0.3333-0.3333 (164442 PWs)   bands (ev):

   -25.8272 -25.0144 -24.8058 -24.3556 -21.9028 -21.4932 -21.1183 -19.1044
   -17.1169 -16.9803 -14.9027 -14.6453 -13.4033 -12.9714 -12.5487 -12.3743
   -12.1798 -12.0221 -11.2494 -11.2190 -10.7727 -10.5272 -10.4704  -9.8508
    -9.7860  -9.4694  -9.1607  -9.0398  -8.9526  -8.7227  -8.6164  -8.4401
    -8.1646  -7.8585  -7.7138  -7.5304  -6.7639  -5.5199  -5.2900  -5.1772
    -4.9039  -4.7722  -4.5404  -4.0001

          k = 0.3333-0.3333-0.3333 (164442 PWs)   bands (ev):

   -25.8272 -25.0144 -24.8058 -24.3556 -21.9028 -21.4932 -21.1183 -19.1044
   -17.1169 -16.9803 -14.9027 -14.6453 -13.4033 -12.9714 -12.5486 -12.3743
   -12.1798 -12.0221 -11.2494 -11.2190 -10.7727 -10.5272 -10.4704  -9.8508
    -9.7860  -9.4694  -9.1607  -9.0398  -8.9526  -8.7227  -8.6164  -8.4401
    -8.1646  -7.8585  -7.7138  -7.5304  -6.7639  -5.5199  -5.2900  -5.1772
    -4.9038  -4.7722  -4.5404  -4.0001

     highest occupied level (ev):    -4.0000

!    total energy              =    -412.60554676 Ry
     Harris-Foulkes estimate   =    -412.60554675 Ry
     estimated scf accuracy    <          2.0E-09 Ry

     total all-electron energy =     -1554.230448 Ry

     The total energy is the sum of the following terms:

     one-electron contribution =    -974.49302699 Ry
     hartree contribution      =     503.98267398 Ry
     xc contribution           =     -93.78822375 Ry
     ewald contribution        =     259.00031376 Ry
     one-center paw contrib.   =    -107.30728376 Ry

     convergence has been achieved in  10 iterations

     Forces acting on atoms (Ry/au):


     negative rho (up, down):  4.028E-04 0.000E+00
     atom    1 type  2   force =    -0.00732424    0.00243286   -0.00787595
     atom    2 type  2   force =    -0.00755914    0.00274453    0.00547656
     atom    3 type  2   force =    -0.00371701   -0.01457917   -0.01121359
     atom    4 type  2   force =    -0.01091716   -0.00409444    0.01351541
     atom    5 type  2   force =     0.01337344   -0.00201135    0.00018567
     atom    6 type  2   force =     0.00717805   -0.00507007    0.00382456
     atom    7 type  2   force =     0.00949190    0.02835292    0.00170600
     atom    8 type  2   force =     0.00340196    0.00380324   -0.01172122
     atom    9 type  2   force =    -0.00060244   -0.00912721   -0.02164300
     atom   10 type  2   force =    -0.00932540    0.01761885    0.01967399
     atom   11 type  2   force =     0.00354343    0.00352638   -0.02304616
     atom   12 type  2   force =    -0.00370586   -0.00911576   -0.01400906
     atom   13 type  2   force =    -0.00621804    0.00210615    0.00718719
     atom   14 type  2   force =    -0.00886113   -0.00435580    0.01133543
     atom   15 type  2   force =     0.00612844   -0.00859850    0.00294919
     atom   16 type  2   force =    -0.00677087    0.01785990   -0.01531514
     atom   17 type  2   force =    -0.04149357   -0.03753620   -0.03228825
     atom   18 type  1   force =    -0.00009004   -0.00449101    0.00899274
     atom   19 type  1   force =     0.16986514   -0.06606717    0.09543393
     atom   20 type  1   force =     0.00555429   -0.00817306    0.01393744
     atom   21 type  1   force =    -0.02211643   -0.00285758    0.03493830
     atom   22 type  1   force =    -0.01094498   -0.05598601   -0.01034032
     atom   23 type  1   force =     0.01052183    0.00372406   -0.01553131
     atom   24 type  1   force =     0.00024474   -0.01346365    0.02291537
     atom   25 type  1   force =    -0.03879536    0.05042405   -0.04367457
     atom   26 type  3   force =    -0.00144454    0.01830162    0.00581393
     atom   27 type  3   force =     0.03420249    0.02467911    0.01442527
     atom   28 type  3   force =     0.07123152    0.00798326    0.07521177
     atom   29 type  4   force =    -0.15042354    0.07370970   -0.11349852
     atom   30 type  4   force =    -0.02159651   -0.01726807   -0.01176731
     atom   31 type  4   force =     0.01100060    0.01369507   -0.00685197
     atom   32 type  4   force =     0.00616843   -0.00816666    0.00125361

     Total force =     0.346276     Total SCF correction =     0.000062

     number of scf cycles    =   2
     number of bfgs steps    =   1

     energy   old            =    -412.6021068909 Ry
     energy   new            =    -412.6055467568 Ry

     CASE: energy  _new < energy  _old

     new trust radius        =       0.0860556410 bohr
     new conv_thr            =       0.0000000100 Ry


ATOMIC_POSITIONS (crystal)
H        0.659377416   0.864328244   0.785546285
H        0.602271017   0.901224424   0.663336313
H        0.741128255   0.723515020   0.705498464
H        0.753105201   0.736669815   0.503256930
H        0.566970301   0.632532048   0.784454391
H        0.630498689   0.558175545   0.667250233
H        0.452343700   0.563552388   0.624392450
H        0.666100595   0.295101684   0.463265369
H        0.480566701   0.266800382   0.451832448
H        0.585752502   0.161470158   0.233981682
H        0.406616397   0.319788420   0.239357856
H        0.514889260   0.424602017   0.262910141
H        0.399963183   0.435968207   0.459114748
H        0.288612841   0.393905853   0.365867505
H        0.638660179   0.407149287   0.384680565
H        0.285258176   0.650330310   0.214919009
H        0.247149008   0.506237247   0.213701447
C        0.656232327   0.738102363   0.668851359
C        0.668847466   0.754286009   0.544374049
C        0.583198345   0.634564590   0.692116124
C        0.524476556   0.281885222   0.369889909
C        0.522500099   0.172443726   0.306808375
C        0.454886294   0.365836210   0.302787642
C        0.371645912   0.433467457   0.371648014
C        0.366057861   0.552817267   0.332082976
N        0.608456779   0.837880157   0.721286209
N        0.636666836   0.321063692   0.386615206
N        0.292146128   0.570925479   0.244479066
O        0.590551007   0.786878051   0.484096547
O        0.479906303   0.640073174   0.635309463
O        0.457627446   0.097311744   0.328168287
O        0.423315219   0.628392810   0.371706936



     Writing output data file aiida.save
     Check: negative starting charge=   -0.000121
     NEW-OLD atomic charge density approx. for the potential
     Check: negative starting charge=   -0.000120

     negative rho (up, down):  3.784E-04 0.000E+00

     total cpu time spent up to now is     4711.5 secs

     per-process dynamical memory:   286.2 Mb

     Self-consistent Calculation

     iteration #  1     ecut=    90.00 Ry     beta=0.40
     Davidson diagonalization with overlap
     ethr =  1.00E-06,  avg # of iterations =  8.0

     negative rho (up, down):  3.841E-04 0.000E+00

     total cpu time spent up to now is     5174.8 secs

     total energy              =    -412.62141470 Ry
     Harris-Foulkes estimate   =    -412.60201605 Ry
     estimated scf accuracy    <       0.00836308 Ry

     iteration #  2     ecut=    90.00 Ry     beta=0.40
     Davidson diagonalization with overlap
     ethr =  9.50E-06,  avg # of iterations =  4.0

     negative rho (up, down):  3.901E-04 0.000E+00

     total cpu time spent up to now is     5340.1 secs

     total energy              =    -412.62158011 Ry
     Harris-Foulkes estimate   =    -412.62225708 Ry
     estimated scf accuracy    <       0.00138187 Ry

     iteration #  3     ecut=    90.00 Ry     beta=0.40
     Davidson diagonalization with overlap
     ethr =  1.57E-06,  avg # of iterations =  4.0

     negative rho (up, down):  3.950E-04 0.000E+00

     total cpu time spent up to now is     5495.1 secs

     total energy              =    -412.62164193 Ry
     Harris-Foulkes estimate   =    -412.62178109 Ry
     estimated scf accuracy    <       0.00030581 Ry

     iteration #  4     ecut=    90.00 Ry     beta=0.40
     Davidson diagonalization with overlap
     ethr =  3.48E-07,  avg # of iterations =  4.0

     negative rho (up, down):  3.982E-04 0.000E+00

     total cpu time spent up to now is     5674.4 secs

     total energy              =    -412.62166099 Ry
     Harris-Foulkes estimate   =    -412.62168373 Ry
     estimated scf accuracy    <       0.00004647 Ry

     iteration #  5     ecut=    90.00 Ry     beta=0.40
     Davidson diagonalization with overlap
     ethr =  5.28E-08,  avg # of iterations =  4.0

     negative rho (up, down):  3.991E-04 0.000E+00

     total cpu time spent up to now is     5887.9 secs

     total energy              =    -412.62166792 Ry
     Harris-Foulkes estimate   =    -412.62167053 Ry
     estimated scf accuracy    <       0.00000624 Ry

     iteration #  6     ecut=    90.00 Ry     beta=0.40
     Davidson diagonalization with overlap
     ethr =  7.09E-09,  avg # of iterations =  4.0

     negative rho (up, down):  3.998E-04 0.000E+00

     total cpu time spent up to now is     6050.2 secs

     total energy              =    -412.62166852 Ry
     Harris-Foulkes estimate   =    -412.62166920 Ry
     estimated scf accuracy    <       0.00000181 Ry

     iteration #  7     ecut=    90.00 Ry     beta=0.40
     Davidson diagonalization with overlap
     ethr =  2.05E-09,  avg # of iterations =  4.0

     negative rho (up, down):  4.001E-04 0.000E+00

     total cpu time spent up to now is     6207.6 secs

     total energy              =    -412.62166876 Ry
     Harris-Foulkes estimate   =    -412.62166882 Ry
     estimated scf accuracy    <       0.00000020 Ry

     iteration #  8     ecut=    90.00 Ry     beta=0.40
     Davidson diagonalization with overlap
     ethr =  2.32E-10,  avg # of iterations =  4.0

     negative rho (up, down):  4.003E-04 0.000E+00

     total cpu time spent up to now is     6389.3 secs

     total energy              =    -412.62166880 Ry
     Harris-Foulkes estimate   =    -412.62166880 Ry
     estimated scf accuracy    <       0.00000003 Ry

     iteration #  9     ecut=    90.00 Ry     beta=0.40
     Davidson diagonalization with overlap
     ethr =  3.56E-11,  avg # of iterations =  4.0

     negative rho (up, down):  4.006E-04 0.000E+00

     total cpu time spent up to now is     6621.6 secs

     End of self-consistent calculation

          k = 0.0000 0.0000 0.0000 (164415 PWs)   bands (ev):

   -25.1482 -24.7314 -24.6148 -24.2734 -21.8585 -21.4771 -21.1346 -18.9971
   -17.2548 -16.8858 -14.8400 -14.8198 -13.4217 -12.9082 -12.4747 -12.4175
   -12.1587 -11.9621 -11.1950 -11.1812 -10.7204 -10.4439 -10.4294  -9.7953
    -9.6561  -9.3186  -9.1671  -9.0066  -8.9079  -8.6621  -8.6200  -8.1942
    -7.8243  -7.7197  -7.6192  -7.5293  -6.8043  -5.5087  -5.3030  -5.1928
    -4.8732  -4.7271  -4.4911  -4.0859

          k = 0.0000 0.0000 0.3333 (164448 PWs)   bands (ev):

   -25.1482 -24.7314 -24.6148 -24.2734 -21.8585 -21.4771 -21.1346 -18.9971
   -17.2548 -16.8858 -14.8400 -14.8198 -13.4217 -12.9082 -12.4747 -12.4175
   -12.1587 -11.9621 -11.1950 -11.1812 -10.7204 -10.4438 -10.4295  -9.7953
    -9.6561  -9.3186  -9.1671  -9.0065  -8.9079  -8.6621  -8.6200  -8.1942
    -7.8243  -7.7197  -7.6192  -7.5292  -6.8043  -5.5087  -5.3030  -5.1929
    -4.8733  -4.7271  -4.4911  -4.0858

          k = 0.0000 0.3333 0.3333 (164442 PWs)   bands (ev):

   -25.1482 -24.7314 -24.6148 -24.2734 -21.8585 -21.4771 -21.1346 -18.9971
   -17.2548 -16.8858 -14.8399 -14.8199 -13.4217 -12.9082 -12.4746 -12.4176
   -12.1587 -11.9621 -11.1956 -11.1806 -10.7198 -10.4442 -10.4293  -9.7964
    -9.6555  -9.3185  -9.1674  -9.0069  -8.9080  -8.6613  -8.6197  -8.1936
    -7.8244  -7.7232  -7.6170  -7.5287  -6.8043  -5.5087  -5.3031  -5.1927
    -4.8735  -4.7255  -4.4928  -4.0859

          k = 0.3333 0.3333 0.3333 (164442 PWs)   bands (ev):

   -25.1482 -24.7314 -24.6148 -24.2734 -21.8585 -21.4771 -21.1346 -18.9971
   -17.2548 -16.8858 -14.8399 -14.8199 -13.4217 -12.9082 -12.4746 -12.4176
   -12.1587 -11.9621 -11.1956 -11.1806 -10.7198 -10.4442 -10.4293  -9.7964
    -9.6555  -9.3185  -9.1675  -9.0069  -8.9080  -8.6613  -8.6197  -8.1936
    -7.8244  -7.7232  -7.6170  -7.5287  -6.8043  -5.5087  -5.3030  -5.1927
    -4.8734  -4.7255  -4.4927  -4.0859

          k = 0.3333 0.0000 0.0000 (164448 PWs)   bands (ev):

   -25.1482 -24.7314 -24.6148 -24.2734 -21.8585 -21.4771 -21.1346 -18.9971
   -17.2548 -16.8858 -14.8400 -14.8198 -13.4217 -12.9082 -12.4747 -12.4175
   -12.1587 -11.9621 -11.1950 -11.1812 -10.7204 -10.4439 -10.4294  -9.7953
    -9.6561  -9.3186  -9.1671  -9.0066  -8.9079  -8.6621  -8.6200  -8.1942
    -7.8242  -7.7197  -7.6192  -7.5293  -6.8043  -5.5088  -5.3030  -5.1928
    -4.8732  -4.7271  -4.4911  -4.0859

          k = 0.0000 0.3333 0.0000 (164448 PWs)   bands (ev):

   -25.1482 -24.7314 -24.6148 -24.2734 -21.8585 -21.4771 -21.1346 -18.9971
   -17.2548 -16.8858 -14.8399 -14.8198 -13.4217 -12.9082 -12.4746 -12.4176
   -12.1587 -11.9621 -11.1956 -11.1806 -10.7198 -10.4442 -10.4292  -9.7964
    -9.6555  -9.3185  -9.1674  -9.0069  -8.9080  -8.6613  -8.6198  -8.1935
    -7.8244  -7.7232  -7.6169  -7.5287  -6.8043  -5.5088  -5.3031  -5.1926
    -4.8734  -4.7255  -4.4928  -4.0860

          k = 0.0000-0.3333 0.3333 (164442 PWs)   bands (ev):

   -25.1482 -24.7314 -24.6148 -24.2734 -21.8585 -21.4771 -21.1346 -18.9971
   -17.2548 -16.8858 -14.8399 -14.8199 -13.4217 -12.9082 -12.4746 -12.4176
   -12.1587 -11.9621 -11.1956 -11.1806 -10.7198 -10.4442 -10.4292  -9.7964
    -9.6555  -9.3185  -9.1674  -9.0069  -8.9080  -8.6613  -8.6198  -8.1936
    -7.8244  -7.7232  -7.6170  -7.5287  -6.8043  -5.5087  -5.3031  -5.1927
    -4.8735  -4.7255  -4.4928  -4.0859

          k = 0.3333 0.0000-0.3333 (164442 PWs)   bands (ev):

   -25.1482 -24.7314 -24.6148 -24.2734 -21.8585 -21.4771 -21.1346 -18.9971
   -17.2548 -16.8858 -14.8400 -14.8198 -13.4217 -12.9082 -12.4747 -12.4175
   -12.1587 -11.9621 -11.1950 -11.1812 -10.7204 -10.4438 -10.4295  -9.7953
    -9.6561  -9.3186  -9.1672  -9.0065  -8.9079  -8.6621  -8.6200  -8.1942
    -7.8243  -7.7197  -7.6192  -7.5292  -6.8043  -5.5087  -5.3030  -5.1929
    -4.8732  -4.7271  -4.4911  -4.0858

          k =-0.3333 0.0000-0.3333 (164442 PWs)   bands (ev):

   -25.1482 -24.7314 -24.6148 -24.2734 -21.8585 -21.4771 -21.1346 -18.9971
   -17.2548 -16.8858 -14.8400 -14.8198 -13.4217 -12.9082 -12.4747 -12.4175
   -12.1587 -11.9621 -11.1950 -11.1812 -10.7204 -10.4438 -10.4295  -9.7953
    -9.6561  -9.3186  -9.1672  -9.0065  -8.9079  -8.6621  -8.6200  -8.1942
    -7.8243  -7.7197  -7.6192  -7.5292  -6.8043  -5.5087  -5.3030  -5.1929
    -4.8732  -4.7271  -4.4911  -4.0858

          k = 0.3333-0.3333 0.0000 (164442 PWs)   bands (ev):

   -25.1482 -24.7314 -24.6148 -24.2734 -21.8585 -21.4771 -21.1346 -18.9971
   -17.2548 -16.8858 -14.8399 -14.8198 -13.4217 -12.9082 -12.4746 -12.4176
   -12.1587 -11.9621 -11.1956 -11.1806 -10.7198 -10.4442 -10.4292  -9.7964
    -9.6555  -9.3185  -9.1675  -9.0069  -8.9080  -8.6613  -8.6198  -8.1935
    -7.8244  -7.7232  -7.6169  -7.5287  -6.8043  -5.5088  -5.3031  -5.1926
    -4.8734  -4.7254  -4.4927  -4.0860

          k =-0.3333-0.3333 0.0000 (164442 PWs)   bands (ev):

   -25.1482 -24.7314 -24.6148 -24.2734 -21.8585 -21.4771 -21.1346 -18.9971
   -17.2548 -16.8858 -14.8399 -14.8198 -13.4217 -12.9082 -12.4746 -12.4176
   -12.1587 -11.9621 -11.1956 -11.1806 -10.7198 -10.4442 -10.4292  -9.7964
    -9.6555  -9.3185  -9.1675  -9.0069  -8.9080  -8.6613  -8.6198  -8.1935
    -7.8244  -7.7232  -7.6169  -7.5287  -6.8043  -5.5088  -5.3031  -5.1926
    -4.8734  -4.7254  -4.4927  -4.0860

          k =-0.3333-0.3333 0.3333 (164442 PWs)   bands (ev):

   -25.1482 -24.7314 -24.6148 -24.2734 -21.8585 -21.4771 -21.1346 -18.9971
   -17.2548 -16.8858 -14.8399 -14.8199 -13.4217 -12.9082 -12.4746 -12.4176
   -12.1587 -11.9621 -11.1956 -11.1806 -10.7198 -10.4442 -10.4292  -9.7964
    -9.6555  -9.3185  -9.1675  -9.0069  -8.9080  -8.6613  -8.6198  -8.1936
    -7.8244  -7.7232  -7.6170  -7.5287  -6.8043  -5.5087  -5.3030  -5.1927
    -4.8734  -4.7255  -4.4927  -4.0859

          k =-0.3333 0.3333-0.3333 (164442 PWs)   bands (ev):

   -25.1482 -24.7314 -24.6148 -24.2734 -21.8585 -21.4771 -21.1346 -18.9971
   -17.2548 -16.8858 -14.8399 -14.8199 -13.4217 -12.9082 -12.4746 -12.4176
   -12.1587 -11.9621 -11.1956 -11.1806 -10.7198 -10.4442 -10.4292  -9.7964
    -9.6555  -9.3185  -9.1675  -9.0069  -8.9080  -8.6613  -8.6198  -8.1936
    -7.8244  -7.7232  -7.6170  -7.5287  -6.8043  -5.5087  -5.3030  -5.1927
    -4.8734  -4.7255  -4.4927  -4.0859

          k = 0.3333-0.3333-0.3333 (164442 PWs)   bands (ev):

   -25.1482 -24.7314 -24.6148 -24.2734 -21.8585 -21.4771 -21.1346 -18.9971
   -17.2548 -16.8858 -14.8399 -14.8199 -13.4217 -12.9082 -12.4746 -12.4176
   -12.1587 -11.9621 -11.1956 -11.1806 -10.7198 -10.4442 -10.4293  -9.7964
    -9.6555  -9.3185  -9.1675  -9.0069  -8.9080  -8.6613  -8.6197  -8.1936
    -7.8244  -7.7232  -7.6170  -7.5287  -6.8043  -5.5087  -5.3030  -5.1927
    -4.8734  -4.7255  -4.4927  -4.0859

     highest occupied level (ev):    -4.0858

!    total energy              =    -412.62166881 Ry
     Harris-Foulkes estimate   =    -412.62166881 Ry
     estimated scf accuracy    <          5.3E-09 Ry

     total all-electron energy =     -1554.246570 Ry

     The total energy is the sum of the following terms:

     one-electron contribution =    -970.13850474 Ry
     hartree contribution      =     501.91312956 Ry
     xc contribution           =     -93.61197469 Ry
     ewald contribution        =     256.52443348 Ry
     one-center paw contrib.   =    -107.30875242 Ry

     convergence has been achieved in   9 iterations

     Forces acting on atoms (Ry/au):


     negative rho (up, down):  4.006E-04 0.000E+00
     atom    1 type  2   force =    -0.00680858    0.00185825   -0.00806254
     atom    2 type  2   force =    -0.00727858   -0.00097707    0.00580543
     atom    3 type  2   force =    -0.00893140   -0.01308800   -0.00754057
     atom    4 type  2   force =    -0.01003358   -0.00478009    0.01363083
     atom    5 type  2   force =     0.01232844   -0.00134671   -0.00471490
     atom    6 type  2   force =     0.00265656    0.00016144    0.00433368
     atom    7 type  2   force =     0.00442662    0.01624045   -0.00087253
     atom    8 type  2   force =     0.00543426    0.00396780   -0.00916711
     atom    9 type  2   force =    -0.00006743   -0.00599069   -0.01557081
     atom   10 type  2   force =    -0.01451494    0.01525104    0.02444959
     atom   11 type  2   force =     0.00547666    0.00413900   -0.01798703
     atom   12 type  2   force =    -0.00452820   -0.00868072   -0.01176376
     atom   13 type  2   force =    -0.00472204    0.00120406    0.00861496
     atom   14 type  2   force =    -0.00521072   -0.00339404    0.01153814
     atom   15 type  2   force =     0.00602742   -0.00415802    0.00322135
     atom   16 type  2   force =    -0.00383952    0.00205536   -0.00797561
     atom   17 type  2   force =    -0.01169607    0.00054394   -0.01022297
     atom   18 type  1   force =     0.00956480   -0.00171387    0.01186751
     atom   19 type  1   force =    -0.05000472    0.02713784   -0.07106486
     atom   20 type  1   force =    -0.00028182   -0.01298465    0.01208270
     atom   21 type  1   force =    -0.02657841   -0.00959445    0.02359599
     atom   22 type  1   force =     0.01810558   -0.02562802   -0.02321106
     atom   23 type  1   force =     0.00766878    0.00390566   -0.01010796
     atom   24 type  1   force =    -0.00122330   -0.00187608    0.00925960
     atom   25 type  1   force =    -0.01978774    0.02972244   -0.02255123
     atom   26 type  3   force =     0.00041635    0.01655505    0.00296075
     atom   27 type  3   force =     0.02655430    0.01634072    0.01182788
     atom   28 type  3   force =     0.02790879   -0.00640300    0.03345870
     atom   29 type  4   force =     0.06485732   -0.01523999    0.04910466
     atom   30 type  4   force =    -0.00804862   -0.00770599   -0.00277055
     atom   31 type  4   force =    -0.00697905   -0.00448491    0.00099525
     atom   32 type  4   force =    -0.00089114   -0.01103676   -0.00316353

     Total force =     0.168232     Total SCF correction =     0.000089

     number of scf cycles    =   3
     number of bfgs steps    =   2

     energy   old            =    -412.6055467568 Ry
     energy   new            =    -412.6216688123 Ry

     CASE: energy  _new < energy  _old

     new trust radius        =       0.0575279365 bohr
     new conv_thr            =       0.0000000100 Ry


ATOMIC_POSITIONS (crystal)
H        0.659058425   0.864424442   0.785176634
H        0.601925606   0.901220413   0.663600200
H        0.740766869   0.722884214   0.705114563
H        0.752641921   0.736448690   0.503887416
H        0.567558213   0.632462471   0.784289350
H        0.630670919   0.558127400   0.667448505
H        0.452595957   0.564415976   0.624374251
H        0.666340075   0.295284442   0.462820043
H        0.480551569   0.266484737   0.451052896
H        0.585134725   0.162206396   0.235067420
H        0.406854276   0.319977112   0.238462140
H        0.514689911   0.424194011   0.262333012
H        0.399727615   0.436035832   0.459508019
H        0.288331189   0.393734724   0.366407892
H        0.638944707   0.406922536   0.384829962
H        0.285052404   0.650576107   0.214477681
H        0.246324625   0.505909996   0.213017596
C        0.656582669   0.737996198   0.669374480
C        0.668520205   0.754697202   0.542600005
C        0.583234663   0.634005997   0.692687848
C        0.523302545   0.281505314   0.371086482
C        0.523063684   0.170977346   0.305868392
C        0.455267087   0.366011105   0.302266589
C        0.371599236   0.433272593   0.372206339
C        0.364972502   0.554388576   0.330861072
N        0.608454739   0.838663600   0.721449151
N        0.637969246   0.321897335   0.387184981
N        0.293824775   0.570758405   0.246399019
O        0.591599222   0.786988846   0.484889667
O        0.479407418   0.639636638   0.635098052
O        0.457458989   0.097252913   0.328139518
O        0.423352015   0.627917431   0.371606827



     Writing output data file aiida.save
     Check: negative starting charge=   -0.000120
     NEW-OLD atomic charge density approx. for the potential
     Check: negative starting charge=   -0.000120

     negative rho (up, down):  3.944E-04 0.000E+00

     total cpu time spent up to now is     6687.2 secs

     per-process dynamical memory:   286.2 Mb

     Self-consistent Calculation

     iteration #  1     ecut=    90.00 Ry     beta=0.40
     Davidson diagonalization with overlap
     ethr =  1.00E-06,  avg # of iterations =  9.0

     negative rho (up, down):  4.008E-04 0.000E+00

     total cpu time spent up to now is     7114.7 secs

     total energy              =    -412.62562376 Ry
     Harris-Foulkes estimate   =    -412.63233431 Ry
     estimated scf accuracy    <       0.00605759 Ry

     iteration #  2     ecut=    90.00 Ry     beta=0.40
     Davidson diagonalization with overlap
     ethr =  6.88E-06,  avg # of iterations =  5.0

     negative rho (up, down):  4.028E-04 0.000E+00

     total cpu time spent up to now is     7264.3 secs

     total energy              =    -412.62615992 Ry
     Harris-Foulkes estimate   =    -412.62656027 Ry
     estimated scf accuracy    <       0.00106044 Ry

     iteration #  3     ecut=    90.00 Ry     beta=0.40
     Davidson diagonalization with overlap
     ethr =  1.21E-06,  avg # of iterations =  4.0

     negative rho (up, down):  4.043E-04 0.000E+00

     total cpu time spent up to now is     7420.4 secs

     total energy              =    -412.62625890 Ry
     Harris-Foulkes estimate   =    -412.62635545 Ry
     estimated scf accuracy    <       0.00029018 Ry

     iteration #  4     ecut=    90.00 Ry     beta=0.40
     Davidson diagonalization with overlap
     ethr =  3.30E-07,  avg # of iterations =  5.0

     negative rho (up, down):  4.041E-04 0.000E+00

     total cpu time spent up to now is     7596.1 secs

     total energy              =    -412.62630831 Ry
     Harris-Foulkes estimate   =    -412.62631658 Ry
     estimated scf accuracy    <       0.00004023 Ry

     iteration #  5     ecut=    90.00 Ry     beta=0.40
     Davidson diagonalization with overlap
     ethr =  4.57E-08,  avg # of iterations =  2.0

     negative rho (up, down):  4.036E-04 0.000E+00

     total cpu time spent up to now is     7779.3 secs

     total energy              =    -412.62631257 Ry
     Harris-Foulkes estimate   =    -412.62631298 Ry
     estimated scf accuracy    <       0.00000684 Ry

     iteration #  6     ecut=    90.00 Ry     beta=0.40
     Davidson diagonalization with overlap
     ethr =  7.78E-09,  avg # of iterations =  4.0

     negative rho (up, down):  4.035E-04 0.000E+00

     total cpu time spent up to now is     8013.5 secs

     total energy              =    -412.62631370 Ry
     Harris-Foulkes estimate   =    -412.62631393 Ry
     estimated scf accuracy    <       0.00000112 Ry

     iteration #  7     ecut=    90.00 Ry     beta=0.40
     Davidson diagonalization with overlap
     ethr =  1.28E-09,  avg # of iterations =  4.0

     negative rho (up, down):  4.034E-04 0.000E+00

     total cpu time spent up to now is     8212.5 secs

     total energy              =    -412.62631385 Ry
     Harris-Foulkes estimate   =    -412.62631388 Ry
     estimated scf accuracy    <       0.00000023 Ry

     iteration #  8     ecut=    90.00 Ry     beta=0.40
     Davidson diagonalization with overlap
     ethr =  2.67E-10,  avg # of iterations =  4.0

     negative rho (up, down):  4.035E-04 0.000E+00

     total cpu time spent up to now is     8412.9 secs

     total energy              =    -412.62631389 Ry
     Harris-Foulkes estimate   =    -412.62631392 Ry
     estimated scf accuracy    <       0.00000009 Ry

     iteration #  9     ecut=    90.00 Ry     beta=0.40
     Davidson diagonalization with overlap
     ethr =  9.92E-11,  avg # of iterations =  3.0

     negative rho (up, down):  4.035E-04 0.000E+00

     total cpu time spent up to now is     8583.0 secs

     End of self-consistent calculation

          k = 0.0000 0.0000 0.0000 (164415 PWs)   bands (ev):

   -25.2038 -24.9731 -24.7948 -24.2985 -21.7249 -21.6234 -21.0582 -18.8493
   -17.1930 -16.7273 -14.7598 -14.7214 -13.6296 -13.0558 -12.4799 -12.3773
   -12.1173 -11.8331 -11.1818 -11.0965 -10.5299 -10.4176 -10.3962  -9.7658
    -9.6560  -9.3408  -9.2064  -9.0037  -8.8929  -8.7191  -8.5179  -8.2760
    -7.8333  -7.8027  -7.7165  -7.5332  -6.7882  -5.5482  -5.3037  -5.1781
    -4.8780  -4.6547  -4.4222  -4.0506

          k = 0.0000 0.0000 0.3333 (164448 PWs)   bands (ev):

   -25.2038 -24.9731 -24.7948 -24.2985 -21.7249 -21.6234 -21.0582 -18.8493
   -17.1930 -16.7273 -14.7598 -14.7214 -13.6296 -13.0558 -12.4799 -12.3773
   -12.1173 -11.8331 -11.1818 -11.0965 -10.5299 -10.4175 -10.3963  -9.7658
    -9.6560  -9.3408  -9.2064  -9.0037  -8.8929  -8.7191  -8.5179  -8.2760
    -7.8333  -7.8026  -7.7165  -7.5332  -6.7882  -5.5481  -5.3037  -5.1782
    -4.8780  -4.6547  -4.4223  -4.0505

          k = 0.0000 0.3333 0.3333 (164442 PWs)   bands (ev):

   -25.2038 -24.9731 -24.7948 -24.2985 -21.7249 -21.6234 -21.0582 -18.8493
   -17.1930 -16.7273 -14.7598 -14.7214 -13.6297 -13.0558 -12.4799 -12.3774
   -12.1173 -11.8332 -11.1819 -11.0965 -10.5291 -10.4178 -10.3961  -9.7669
    -9.6555  -9.3412  -9.2064  -9.0038  -8.8929  -8.7188  -8.5175  -8.2750
    -7.8363  -7.8029  -7.7144  -7.5331  -6.7882  -5.5481  -5.3037  -5.1780
    -4.8782  -4.6525  -4.4245  -4.0506

          k = 0.3333 0.3333 0.3333 (164442 PWs)   bands (ev):

   -25.2038 -24.9731 -24.7948 -24.2985 -21.7249 -21.6234 -21.0582 -18.8493
   -17.1930 -16.7273 -14.7598 -14.7214 -13.6297 -13.0558 -12.4799 -12.3774
   -12.1173 -11.8332 -11.1819 -11.0965 -10.5291 -10.4178 -10.3961  -9.7670
    -9.6555  -9.3412  -9.2064  -9.0038  -8.8929  -8.7188  -8.5175  -8.2751
    -7.8363  -7.8029  -7.7144  -7.5331  -6.7882  -5.5481  -5.3037  -5.1780
    -4.8782  -4.6525  -4.4245  -4.0506

          k = 0.3333 0.0000 0.0000 (164448 PWs)   bands (ev):

   -25.2038 -24.9731 -24.7948 -24.2985 -21.7249 -21.6234 -21.0582 -18.8493
   -17.1930 -16.7273 -14.7598 -14.7214 -13.6296 -13.0558 -12.4799 -12.3773
   -12.1173 -11.8331 -11.1818 -11.0965 -10.5299 -10.4176 -10.3962  -9.7658
    -9.6560  -9.3408  -9.2064  -9.0037  -8.8929  -8.7191  -8.5179  -8.2760
    -7.8333  -7.8027  -7.7165  -7.5332  -6.7882  -5.5482  -5.3037  -5.1781
    -4.8780  -4.6547  -4.4222  -4.0506

          k = 0.0000 0.3333 0.0000 (164448 PWs)   bands (ev):

   -25.2038 -24.9731 -24.7948 -24.2985 -21.7249 -21.6234 -21.0582 -18.8493
   -17.1930 -16.7273 -14.7598 -14.7214 -13.6297 -13.0558 -12.4799 -12.3774
   -12.1173 -11.8332 -11.1819 -11.0965 -10.5291 -10.4178 -10.3961  -9.7670
    -9.6555  -9.3412  -9.2064  -9.0038  -8.8929  -8.7188  -8.5175  -8.2750
    -7.8362  -7.8030  -7.7144  -7.5331  -6.7882  -5.5482  -5.3037  -5.1779
    -4.8782  -4.6525  -4.4245  -4.0507

          k = 0.0000-0.3333 0.3333 (164442 PWs)   bands (ev):

   -25.2038 -24.9731 -24.7948 -24.2985 -21.7249 -21.6234 -21.0582 -18.8493
   -17.1930 -16.7273 -14.7598 -14.7214 -13.6297 -13.0558 -12.4799 -12.3774
   -12.1173 -11.8332 -11.1819 -11.0965 -10.5291 -10.4178 -10.3961  -9.7670
    -9.6555  -9.3412  -9.2064  -9.0038  -8.8929  -8.7188  -8.5175  -8.2750
    -7.8363  -7.8029  -7.7144  -7.5331  -6.7882  -5.5481  -5.3037  -5.1780
    -4.8782  -4.6525  -4.4245  -4.0506

          k = 0.3333 0.0000-0.3333 (164442 PWs)   bands (ev):

   -25.2038 -24.9731 -24.7948 -24.2985 -21.7249 -21.6234 -21.0582 -18.8493
   -17.1930 -16.7273 -14.7598 -14.7214 -13.6296 -13.0558 -12.4799 -12.3773
   -12.1173 -11.8331 -11.1818 -11.0965 -10.5299 -10.4175 -10.3963  -9.7658
    -9.6560  -9.3408  -9.2064  -9.0037  -8.8929  -8.7191  -8.5179  -8.2760
    -7.8333  -7.8026  -7.7165  -7.5332  -6.7882  -5.5481  -5.3038  -5.1782
    -4.8780  -4.6547  -4.4222  -4.0505

          k =-0.3333 0.0000-0.3333 (164442 PWs)   bands (ev):

   -25.2038 -24.9731 -24.7948 -24.2985 -21.7249 -21.6234 -21.0582 -18.8493
   -17.1930 -16.7273 -14.7598 -14.7214 -13.6296 -13.0558 -12.4799 -12.3773
   -12.1173 -11.8331 -11.1818 -11.0965 -10.5299 -10.4175 -10.3963  -9.7658
    -9.6560  -9.3408  -9.2064  -9.0037  -8.8929  -8.7191  -8.5179  -8.2760
    -7.8333  -7.8026  -7.7165  -7.5332  -6.7882  -5.5481  -5.3038  -5.1782
    -4.8780  -4.6547  -4.4222  -4.0505

          k = 0.3333-0.3333 0.0000 (164442 PWs)   bands (ev):

   -25.2038 -24.9731 -24.7948 -24.2985 -21.7249 -21.6234 -21.0582 -18.8493
   -17.1930 -16.7273 -14.7598 -14.7214 -13.6297 -13.0558 -12.4799 -12.3774
   -12.1173 -11.8332 -11.1819 -11.0965 -10.5291 -10.4178 -10.3961  -9.7670
    -9.6555  -9.3412  -9.2064  -9.0038  -8.8929  -8.7188  -8.5175  -8.2750
    -7.8362  -7.8030  -7.7144  -7.5331  -6.7882  -5.5482  -5.3037  -5.1779
    -4.8782  -4.6525  -4.4244  -4.0507

          k =-0.3333-0.3333 0.0000 (164442 PWs)   bands (ev):

   -25.2038 -24.9731 -24.7948 -24.2985 -21.7249 -21.6234 -21.0582 -18.8493
   -17.1930 -16.7273 -14.7598 -14.7214 -13.6297 -13.0558 -12.4799 -12.3774
   -12.1173 -11.8332 -11.1819 -11.0965 -10.5291 -10.4178 -10.3961  -9.7670
    -9.6555  -9.3412  -9.2064  -9.0038  -8.8929  -8.7188  -8.5175  -8.2750
    -7.8362  -7.8030  -7.7144  -7.5331  -6.7882  -5.5482  -5.3037  -5.1779
    -4.8782  -4.6525  -4.4244  -4.0507

          k =-0.3333-0.3333 0.3333 (164442 PWs)   bands (ev):

   -25.2038 -24.9731 -24.7948 -24.2985 -21.7249 -21.6234 -21.0582 -18.8493
   -17.1930 -16.7273 -14.7598 -14.7214 -13.6297 -13.0558 -12.4799 -12.3774
   -12.1173 -11.8332 -11.1819 -11.0965 -10.5291 -10.4178 -10.3961  -9.7670
    -9.6555  -9.3412  -9.2064  -9.0038  -8.8929  -8.7188  -8.5175  -8.2750
    -7.8363  -7.8029  -7.7144  -7.5331  -6.7882  -5.5481  -5.3037  -5.1780
    -4.8782  -4.6525  -4.4245  -4.0506

          k =-0.3333 0.3333-0.3333 (164442 PWs)   bands (ev):

   -25.2038 -24.9731 -24.7948 -24.2985 -21.7249 -21.6234 -21.0582 -18.8493
   -17.1930 -16.7273 -14.7598 -14.7214 -13.6297 -13.0558 -12.4799 -12.3774
   -12.1173 -11.8332 -11.1819 -11.0965 -10.5291 -10.4178 -10.3961  -9.7670
    -9.6555  -9.3412  -9.2064  -9.0038  -8.8929  -8.7188  -8.5175  -8.2750
    -7.8363  -7.8029  -7.7144  -7.5331  -6.7882  -5.5481  -5.3037  -5.1780
    -4.8782  -4.6525  -4.4245  -4.0506

          k = 0.3333-0.3333-0.3333 (164442 PWs)   bands (ev):

   -25.2038 -24.9731 -24.7948 -24.2985 -21.7249 -21.6234 -21.0582 -18.8493
   -17.1930 -16.7273 -14.7598 -14.7214 -13.6297 -13.0558 -12.4799 -12.3774
   -12.1173 -11.8332 -11.1819 -11.0965 -10.5291 -10.4178 -10.3961  -9.7670
    -9.6555  -9.3412  -9.2064  -9.0038  -8.8929  -8.7188  -8.5175  -8.2751
    -7.8363  -7.8029  -7.7144  -7.5331  -6.7882  -5.5481  -5.3037  -5.1780
    -4.8782  -4.6525  -4.4245  -4.0506

     highest occupied level (ev):    -4.0505

!    total energy              =    -412.62631391 Ry
     Harris-Foulkes estimate   =    -412.62631390 Ry
     estimated scf accuracy    <          5.1E-09 Ry

     total all-electron energy =     -1554.251215 Ry

     The total energy is the sum of the following terms:

     one-electron contribution =    -970.00749213 Ry
     hartree contribution      =     501.91189274 Ry
     xc contribution           =     -93.69260815 Ry
     ewald contribution        =     256.46857055 Ry
     one-center paw contrib.   =    -107.30667692 Ry

     convergence has been achieved in   9 iterations

     Forces acting on atoms (Ry/au):


     negative rho (up, down):  4.035E-04 0.000E+00
     atom    1 type  2   force =     0.00140100    0.00823348    0.00306773
     atom    2 type  2   force =    -0.00713791    0.00734610   -0.00181491
     atom    3 type  2   force =     0.00187150   -0.01184119   -0.00230206
     atom    4 type  2   force =     0.00236975   -0.00673565    0.00281490
     atom    5 type  2   force =     0.00765229   -0.00322545    0.00479281
     atom    6 type  2   force =     0.00297601   -0.00283549    0.00379057
     atom    7 type  2   force =    -0.00723174   -0.01594184   -0.00572724
     atom    8 type  2   force =     0.01396354    0.00067112    0.01023136
     atom    9 type  2   force =    -0.01134778   -0.00958362    0.00866411
     atom   10 type  2   force =     0.00162331    0.00756972    0.00364478
     atom   11 type  2   force =     0.00684311    0.00562861   -0.01360928
     atom   12 type  2   force =     0.00284823   -0.00258464   -0.01284340
     atom   13 type  2   force =    -0.00290058    0.00301920    0.00960932
     atom   14 type  2   force =    -0.00212945   -0.00418613    0.01161194
     atom   15 type  2   force =     0.00624530    0.01618880    0.00492460
     atom   16 type  2   force =     0.00246284   -0.01891881    0.00445925
     atom   17 type  2   force =     0.01720981    0.02962035    0.01327078
     atom   18 type  1   force =    -0.00975972    0.00353716   -0.00799545
     atom   19 type  1   force =    -0.00651222    0.00102136    0.00761562
     atom   20 type  1   force =    -0.00256324    0.00076251   -0.00442484
     atom   21 type  1   force =     0.02327774   -0.00376322   -0.02343640
     atom   22 type  1   force =     0.00261565    0.01453400    0.01564162
     atom   23 type  1   force =    -0.00774958   -0.00577575    0.00429206
     atom   24 type  1   force =    -0.00537351    0.01110520   -0.01076570
     atom   25 type  1   force =     0.02476151   -0.02992028    0.04279756
     atom   26 type  3   force =    -0.00121191   -0.00932349   -0.00294687
     atom   27 type  3   force =    -0.01525921   -0.01417386   -0.00909435
     atom   28 type  3   force =    -0.05698966    0.00438585   -0.06270636
     atom   29 type  4   force =     0.00674931    0.01010211   -0.00133068
     atom   30 type  4   force =     0.01407324    0.02299845    0.00911711
     atom   31 type  4   force =    -0.01217400   -0.02115966   -0.00296743
     atom   32 type  4   force =     0.00939638    0.01324505    0.00161887

     Total force =     0.139739     Total SCF correction =     0.000064

     number of scf cycles    =   4
     number of bfgs steps    =   3

     energy   old            =    -412.6216688123 Ry
     energy   new            =    -412.6263139114 Ry

     CASE: energy  _new < energy  _old

     new trust radius        =       0.0395988988 bohr
     new conv_thr            =       0.0000000100 Ry


ATOMIC_POSITIONS (crystal)
H        0.659026401   0.864700554   0.785184944
H        0.601618532   0.901462669   0.663602379
H        0.740761999   0.722353360   0.704948878
H        0.752637955   0.736182666   0.504116092
H        0.567944942   0.632349374   0.784429034
H        0.630835436   0.557995211   0.667610532
H        0.452463430   0.564192029   0.624206889
H        0.666813604   0.295348229   0.463010398
H        0.480197450   0.266095417   0.451091828
H        0.585072620   0.162631494   0.235405919
H        0.407108137   0.320190141   0.237790803
H        0.514736495   0.424016034   0.261782170
H        0.399574620   0.436153425   0.459899962
H        0.288169948   0.393553353   0.366895106
H        0.639206569   0.407345359   0.385014813
H        0.285063919   0.650151289   0.214467540
H        0.246525419   0.506589610   0.213159458
C        0.656356428   0.738060655   0.669266764
C        0.668518150   0.754702086   0.542640109
C        0.583163518   0.633898494   0.692680474
C        0.523756953   0.281332392   0.370725781
C        0.523184904   0.170985656   0.306180975
C        0.455140881   0.365871050   0.302242335
C        0.371424678   0.433512879   0.372075356
C        0.365405188   0.553970902   0.331811854
N        0.608399103   0.838591155   0.721407856
N        0.637869017   0.321709841   0.387059505
N        0.292640331   0.570856921   0.245101968
O        0.591747848   0.787454984   0.484804095
O        0.479655732   0.640199596   0.635287492
O        0.457064403   0.096598832   0.328023587
O        0.423693389   0.628223347   0.371661104



     Writing output data file aiida.save
     Check: negative starting charge=   -0.000120
     NEW-OLD atomic charge density approx. for the potential
     Check: negative starting charge=   -0.000120

     negative rho (up, down):  4.022E-04 0.000E+00

     total cpu time spent up to now is     8643.9 secs

     per-process dynamical memory:   286.2 Mb

     Self-consistent Calculation

     iteration #  1     ecut=    90.00 Ry     beta=0.40
     Davidson diagonalization with overlap
     ethr =  1.00E-06,  avg # of iterations =  8.0

     negative rho (up, down):  4.006E-04 0.000E+00

     total cpu time spent up to now is     9027.4 secs

     total energy              =    -412.63165324 Ry
     Harris-Foulkes estimate   =    -412.62739716 Ry
     estimated scf accuracy    <       0.00212749 Ry

     iteration #  2     ecut=    90.00 Ry     beta=0.40
     Davidson diagonalization with overlap
     ethr =  2.42E-06,  avg # of iterations =  5.0

     negative rho (up, down):  4.013E-04 0.000E+00

     total cpu time spent up to now is     9222.5 secs

     total energy              =    -412.63193746 Ry
     Harris-Foulkes estimate   =    -412.63206380 Ry
     estimated scf accuracy    <       0.00031217 Ry

     iteration #  3     ecut=    90.00 Ry     beta=0.40
     Davidson diagonalization with overlap
     ethr =  3.55E-07,  avg # of iterations =  4.0

     negative rho (up, down):  4.018E-04 0.000E+00

     total cpu time spent up to now is     9416.9 secs

     total energy              =    -412.63197140 Ry
     Harris-Foulkes estimate   =    -412.63199876 Ry
     estimated scf accuracy    <       0.00007894 Ry

     iteration #  4     ecut=    90.00 Ry     beta=0.40
     Davidson diagonalization with overlap
     ethr =  8.97E-08,  avg # of iterations =  5.0

     negative rho (up, down):  4.026E-04 0.000E+00

     total cpu time spent up to now is     9672.4 secs

     total energy              =    -412.63198143 Ry
     Harris-Foulkes estimate   =    -412.63198394 Ry
     estimated scf accuracy    <       0.00001123 Ry

     iteration #  5     ecut=    90.00 Ry     beta=0.40
     Davidson diagonalization with overlap
     ethr =  1.28E-08,  avg # of iterations =  3.0

     negative rho (up, down):  4.030E-04 0.000E+00

     total cpu time spent up to now is     9849.7 secs

     total energy              =    -412.63198313 Ry
     Harris-Foulkes estimate   =    -412.63198344 Ry
     estimated scf accuracy    <       0.00000174 Ry

     iteration #  6     ecut=    90.00 Ry     beta=0.40
     Davidson diagonalization with overlap
     ethr =  1.97E-09,  avg # of iterations =  2.6

     negative rho (up, down):  4.033E-04 0.000E+00

     total cpu time spent up to now is    10011.6 secs

     total energy              =    -412.63198334 Ry
     Harris-Foulkes estimate   =    -412.63198338 Ry
     estimated scf accuracy    <       0.00000029 Ry

     iteration #  7     ecut=    90.00 Ry     beta=0.40
     Davidson diagonalization with overlap
     ethr =  3.31E-10,  avg # of iterations =  3.6

     negative rho (up, down):  4.034E-04 0.000E+00

     total cpu time spent up to now is    10220.6 secs

     total energy              =    -412.63198338 Ry
     Harris-Foulkes estimate   =    -412.63198339 Ry
     estimated scf accuracy    <       0.00000005 Ry

     iteration #  8     ecut=    90.00 Ry     beta=0.40
     Davidson diagonalization with overlap
     ethr =  5.73E-11,  avg # of iterations =  2.8

     negative rho (up, down):  4.035E-04 0.000E+00

     total cpu time spent up to now is    10410.0 secs

     End of self-consistent calculation

          k = 0.0000 0.0000 0.0000 (164415 PWs)   bands (ev):

   -25.0898 -24.9619 -24.7763 -24.3004 -21.6783 -21.5754 -21.0525 -18.8776
   -17.1817 -16.7908 -14.7717 -14.7536 -13.5160 -13.0441 -12.4729 -12.4123
   -12.1216 -11.8523 -11.1823 -11.1104 -10.5896 -10.4170 -10.4005  -9.7680
    -9.6476  -9.3421  -9.1805  -8.9931  -8.9059  -8.6696  -8.5847  -8.2740
    -7.8239  -7.8061  -7.7064  -7.5396  -6.8110  -5.5474  -5.3126  -5.1905
    -4.8796  -4.7160  -4.4770  -4.0526

          k = 0.0000 0.0000 0.3333 (164448 PWs)   bands (ev):

   -25.0898 -24.9619 -24.7763 -24.3004 -21.6783 -21.5754 -21.0525 -18.8776
   -17.1817 -16.7908 -14.7717 -14.7536 -13.5160 -13.0441 -12.4729 -12.4123
   -12.1216 -11.8523 -11.1823 -11.1104 -10.5896 -10.4169 -10.4006  -9.7680
    -9.6476  -9.3421  -9.1805  -8.9931  -8.9059  -8.6696  -8.5847  -8.2741
    -7.8239  -7.8060  -7.7064  -7.5396  -6.8110  -5.5473  -5.3126  -5.1906
    -4.8796  -4.7160  -4.4770  -4.0525

          k = 0.0000 0.3333 0.3333 (164442 PWs)   bands (ev):

   -25.0898 -24.9619 -24.7763 -24.3004 -21.6783 -21.5754 -21.0525 -18.8776
[...]

     new trust radius        =       0.1639593151 bohr
     new conv_thr            =       0.0000000091 Ry


ATOMIC_POSITIONS (crystal)
H        0.664440279   0.894437980   0.745416998
H        0.540947659   0.862510588   0.695692563
H        0.738712075   0.715270977   0.708147265
H        0.712942990   0.689582391   0.499196949
H        0.565718629   0.618613455   0.774873423
H        0.634968148   0.558762086   0.653826893
H        0.482998066   0.649824255   0.550803089
H        0.655908631   0.277275618   0.465739225
H        0.465516326   0.245234796   0.441538023
H        0.610668037   0.162943405   0.245080571
H        0.395480577   0.321267959   0.236179249
H        0.512386395   0.412738910   0.256433145
H        0.414157106   0.434433306   0.464381959
H        0.291683040   0.391635739   0.387004888
H        0.619918216   0.401236861   0.415558932
H        0.294105762   0.657727134   0.231484101
H        0.249226456   0.519234078   0.219102439
C        0.655642999   0.738209185   0.672460953
C        0.674934056   0.761620733   0.548037364
C        0.584156003   0.631144568   0.684467356
C        0.516278552   0.270897539   0.366994117
C        0.530155328   0.167073800   0.294235995
C        0.449813497   0.359662568   0.300647037
C        0.376224874   0.430549530   0.379935820
C        0.369704235   0.552346455   0.344025705
N        0.608702843   0.829832088   0.736678684
N        0.625448178   0.317422342   0.396389141
N        0.298797611   0.576834119   0.258137665
O        0.651939853   0.849273342   0.501464553
O        0.478278760   0.639594851   0.632310121
O        0.459864644   0.094134749   0.287025487
O        0.426058173   0.625953592   0.390316291



     Writing output data file aiida.save
     Check: negative starting charge=   -0.000120
     NEW-OLD atomic charge density approx. for the potential
     Check: negative starting charge=   -0.000122

     negative rho (up, down):  4.545E-04 0.000E+00

     total cpu time spent up to now is    76229.1 secs

     per-process dynamical memory:   286.2 Mb

     Self-consistent Calculation

     iteration #  1     ecut=    90.00 Ry     beta=0.40
     Davidson diagonalization with overlap
     ethr =  1.00E-06,  avg # of iterations =  8.0

     negative rho (up, down):  4.074E-04 0.000E+00

     total cpu time spent up to now is    76868.6 secs

     total energy              =    -412.70359588 Ry
     Harris-Foulkes estimate   =    -412.68448302 Ry
     estimated scf accuracy    <       0.01604233 Ry

     iteration #  2     ecut=    90.00 Ry     beta=0.40
     Davidson diagonalization with overlap
     ethr =  1.82E-05,  avg # of iterations =  2.0

     negative rho (up, down):  4.193E-04 0.000E+00

     total cpu time spent up to now is    77047.5 secs

     total energy              =    -412.70315664 Ry
     Harris-Foulkes estimate   =    -412.70449971 Ry
     estimated scf accuracy    <       0.00392671 Ry

     iteration #  3     ecut=    90.00 Ry     beta=0.40
     Davidson diagonalization with overlap
     ethr =  4.46E-06,  avg # of iterations =  2.0

     negative rho (up, down):  4.313E-04 0.000E+00

     total cpu time spent up to now is    77241.2 secs

     total energy              =    -412.70348121 Ry
     Harris-Foulkes estimate   =    -412.70355302 Ry
     estimated scf accuracy    <       0.00034398 Ry

     iteration #  4     ecut=    90.00 Ry     beta=0.40
     Davidson diagonalization with overlap
     ethr =  3.91E-07,  avg # of iterations =  3.0

     negative rho (up, down):  4.377E-04 0.000E+00

     total cpu time spent up to now is    77464.5 secs

     total energy              =    -412.70352824 Ry
     Harris-Foulkes estimate   =    -412.70354796 Ry
     estimated scf accuracy    <       0.00006912 Ry

     iteration #  5     ecut=    90.00 Ry     beta=0.40
     Davidson diagonalization with overlap
     ethr =  7.85E-08,  avg # of iterations =  3.0

     negative rho (up, down):  4.419E-04 0.000E+00

     total cpu time spent up to now is    77699.2 secs

     total energy              =    -412.70353857 Ry
     Harris-Foulkes estimate   =    -412.70354052 Ry
     estimated scf accuracy    <       0.00000938 Ry

     iteration #  6     ecut=    90.00 Ry     beta=0.40
     Davidson diagonalization with overlap
     ethr =  1.07E-08,  avg # of iterations =  4.0

     negative rho (up, down):  4.448E-04 0.000E+00

     total cpu time spent up to now is    77918.3 secs

     total energy              =    -412.70354024 Ry
     Harris-Foulkes estimate   =    -412.70354037 Ry
     estimated scf accuracy    <       0.00000170 Ry

     iteration #  7     ecut=    90.00 Ry     beta=0.40
     Davidson diagonalization with overlap
     ethr =  1.93E-09,  avg # of iterations =  3.0

     negative rho (up, down):  4.468E-04 0.000E+00

     total cpu time spent up to now is    78132.6 secs

     total energy              =    -412.70354056 Ry
     Harris-Foulkes estimate   =    -412.70354051 Ry
     estimated scf accuracy    <       0.00000032 Ry

     iteration #  8     ecut=    90.00 Ry     beta=0.40
     Davidson diagonalization with overlap
     ethr =  3.65E-10,  avg # of iterations =  3.0

     negative rho (up, down):  4.481E-04 0.000E+00

     total cpu time spent up to now is    78338.3 secs

     total energy              =    -412.70354062 Ry
     Harris-Foulkes estimate   =    -412.70354060 Ry
     estimated scf accuracy    <       0.00000005 Ry

     iteration #  9     ecut=    90.00 Ry     beta=0.40
     Davidson diagonalization with overlap
     ethr =  5.80E-11,  avg # of iterations =  4.0

     negative rho (up, down):  4.502E-04 0.000E+00

     total cpu time spent up to now is    78561.6 secs

     End of self-consistent calculation

          k = 0.0000 0.0000 0.0000 (164415 PWs)   bands (ev):

   -25.1989 -25.1924 -25.1815 -24.2228 -21.9168 -21.6658 -21.0661 -18.8741
   -17.2971 -16.8740 -14.9781 -14.9296 -13.8959 -13.0313 -12.8110 -12.5582
   -11.8840 -11.6297 -11.3533 -11.1275 -10.8054 -10.7111 -10.4919  -9.8624
    -9.7613  -9.3809  -9.3349  -9.3058  -8.9638  -8.8501  -8.7989  -8.4820
    -8.0539  -7.9840  -7.7661  -7.6384  -6.5179  -5.9607  -5.4065  -5.2628
    -5.2357  -5.1009  -4.6513  -4.3234

          k = 0.0000 0.0000 0.3333 (164448 PWs)   bands (ev):

   -25.1989 -25.1924 -25.1815 -24.2228 -21.9168 -21.6658 -21.0661 -18.8741
   -17.2971 -16.8740 -14.9781 -14.9296 -13.8959 -13.0313 -12.8110 -12.5582
   -11.8840 -11.6297 -11.3533 -11.1275 -10.8054 -10.7111 -10.4919  -9.8624
    -9.7614  -9.3809  -9.3349  -9.3058  -8.9638  -8.8501  -8.7989  -8.4820
    -8.0539  -7.9840  -7.7660  -7.6384  -6.5178  -5.9608  -5.4066  -5.2628
    -5.2355  -5.1010  -4.6513  -4.3234

          k = 0.0000 0.3333 0.3333 (164442 PWs)   bands (ev):

   -25.1986 -25.1927 -25.1813 -24.2228 -21.9168 -21.6658 -21.0661 -18.8741
   -17.2971 -16.8740 -14.9779 -14.9299 -13.8959 -13.0312 -12.8111 -12.5583
   -11.8841 -11.6297 -11.3535 -11.1271 -10.8056 -10.7109 -10.4917  -9.8618
    -9.7621  -9.3807  -9.3367  -9.3058  -8.9601  -8.8496  -8.8021  -8.4814
    -8.0541  -7.9839  -7.7662  -7.6383  -6.5179  -5.9608  -5.4062  -5.2626
    -5.2357  -5.1004  -4.6522  -4.3234

          k = 0.3333 0.3333 0.3333 (164442 PWs)   bands (ev):

   -25.1986 -25.1927 -25.1813 -24.2228 -21.9168 -21.6658 -21.0661 -18.8741
   -17.2971 -16.8740 -14.9779 -14.9299 -13.8959 -13.0312 -12.8111 -12.5583
   -11.8841 -11.6297 -11.3535 -11.1271 -10.8057 -10.7109 -10.4917  -9.8618
    -9.7621  -9.3807  -9.3367  -9.3058  -8.9601  -8.8496  -8.8021  -8.4814
    -8.0541  -7.9839  -7.7662  -7.6383  -6.5179  -5.9608  -5.4062  -5.2626
    -5.2357  -5.1004  -4.6522  -4.3234

          k = 0.3333 0.0000 0.0000 (164448 PWs)   bands (ev):

   -25.1989 -25.1924 -25.1815 -24.2228 -21.9168 -21.6658 -21.0661 -18.8741
   -17.2971 -16.8740 -14.9781 -14.9296 -13.8959 -13.0312 -12.8110 -12.5582
   -11.8840 -11.6297 -11.3533 -11.1275 -10.8054 -10.7111 -10.4919  -9.8624
    -9.7613  -9.3809  -9.3349  -9.3058  -8.9638  -8.8501  -8.7989  -8.4820
    -8.0539  -7.9840  -7.7660  -7.6384  -6.5179  -5.9607  -5.4065  -5.2628
    -5.2357  -5.1010  -4.6513  -4.3234

          k = 0.0000 0.3333 0.0000 (164448 PWs)   bands (ev):

   -25.1986 -25.1927 -25.1813 -24.2228 -21.9168 -21.6658 -21.0661 -18.8741
   -17.2971 -16.8740 -14.9779 -14.9299 -13.8959 -13.0312 -12.8111 -12.5583
   -11.8841 -11.6297 -11.3535 -11.1271 -10.8056 -10.7109 -10.4917  -9.8618
    -9.7621  -9.3807  -9.3367  -9.3058  -8.9601  -8.8496  -8.8021  -8.4814
    -8.0540  -7.9839  -7.7662  -7.6383  -6.5179  -5.9607  -5.4061  -5.2626
    -5.2359  -5.1004  -4.6522  -4.3233

          k = 0.0000-0.3333 0.3333 (164442 PWs)   bands (ev):

   -25.1986 -25.1927 -25.1813 -24.2228 -21.9168 -21.6658 -21.0661 -18.8741
   -17.2971 -16.8740 -14.9779 -14.9299 -13.8959 -13.0312 -12.8111 -12.5583
   -11.8841 -11.6297 -11.3535 -11.1271 -10.8056 -10.7109 -10.4917  -9.8618
    -9.7621  -9.3807  -9.3367  -9.3058  -8.9601  -8.8496  -8.8021  -8.4814
    -8.0541  -7.9839  -7.7662  -7.6383  -6.5179  -5.9608  -5.4061  -5.2626
    -5.2358  -5.1004  -4.6522  -4.3234

          k = 0.3333 0.0000-0.3333 (164442 PWs)   bands (ev):

   -25.1989 -25.1924 -25.1815 -24.2228 -21.9168 -21.6658 -21.0661 -18.8741
   -17.2971 -16.8740 -14.9781 -14.9296 -13.8959 -13.0312 -12.8110 -12.5582
   -11.8840 -11.6297 -11.3533 -11.1275 -10.8054 -10.7111 -10.4919  -9.8624
    -9.7614  -9.3809  -9.3349  -9.3058  -8.9638  -8.8501  -8.7989  -8.4820
    -8.0539  -7.9840  -7.7660  -7.6384  -6.5178  -5.9608  -5.4066  -5.2628
    -5.2355  -5.1010  -4.6513  -4.3234

          k =-0.3333 0.0000-0.3333 (164442 PWs)   bands (ev):

   -25.1989 -25.1924 -25.1815 -24.2228 -21.9168 -21.6658 -21.0661 -18.8741
   -17.2971 -16.8740 -14.9781 -14.9296 -13.8959 -13.0312 -12.8110 -12.5582
   -11.8840 -11.6297 -11.3533 -11.1275 -10.8054 -10.7111 -10.4919  -9.8624
    -9.7614  -9.3809  -9.3349  -9.3058  -8.9638  -8.8501  -8.7989  -8.4820
    -8.0539  -7.9840  -7.7660  -7.6384  -6.5178  -5.9608  -5.4066  -5.2628
    -5.2355  -5.1010  -4.6513  -4.3234

          k = 0.3333-0.3333 0.0000 (164442 PWs)   bands (ev):

   -25.1986 -25.1927 -25.1813 -24.2228 -21.9168 -21.6658 -21.0661 -18.8741
   -17.2971 -16.8740 -14.9779 -14.9299 -13.8959 -13.0312 -12.8111 -12.5583
   -11.8841 -11.6297 -11.3535 -11.1271 -10.8056 -10.7109 -10.4917  -9.8618
    -9.7621  -9.3807  -9.3367  -9.3058  -8.9601  -8.8496  -8.8021  -8.4814
    -8.0540  -7.9839  -7.7662  -7.6383  -6.5179  -5.9607  -5.4060  -5.2626
    -5.2359  -5.1004  -4.6522  -4.3233

          k =-0.3333-0.3333 0.0000 (164442 PWs)   bands (ev):

   -25.1986 -25.1927 -25.1813 -24.2228 -21.9168 -21.6658 -21.0661 -18.8741
   -17.2971 -16.8740 -14.9779 -14.9299 -13.8959 -13.0312 -12.8111 -12.5583
   -11.8841 -11.6297 -11.3535 -11.1271 -10.8056 -10.7109 -10.4917  -9.8618
    -9.7621  -9.3807  -9.3367  -9.3058  -8.9601  -8.8496  -8.8021  -8.4814
    -8.0540  -7.9839  -7.7662  -7.6383  -6.5179  -5.9607  -5.4060  -5.2626
    -5.2359  -5.1004  -4.6522  -4.3233

          k =-0.3333-0.3333 0.3333 (164442 PWs)   bands (ev):

   -25.1986 -25.1927 -25.1813 -24.2228 -21.9168 -21.6658 -21.0661 -18.8741
   -17.2971 -16.8740 -14.9779 -14.9299 -13.8959 -13.0312 -12.8111 -12.5583
   -11.8841 -11.6297 -11.3535 -11.1271 -10.8056 -10.7109 -10.4917  -9.8618
    -9.7621  -9.3807  -9.3367  -9.3058  -8.9601  -8.8496  -8.8021  -8.4814
    -8.0541  -7.9839  -7.7662  -7.6383  -6.5179  -5.9608  -5.4061  -5.2626
    -5.2358  -5.1004  -4.6522  -4.3234

          k =-0.3333 0.3333-0.3333 (164442 PWs)   bands (ev):

   -25.1986 -25.1927 -25.1813 -24.2228 -21.9168 -21.6658 -21.0661 -18.8741
   -17.2971 -16.8740 -14.9779 -14.9299 -13.8959 -13.0312 -12.8111 -12.5583
   -11.8841 -11.6297 -11.3535 -11.1271 -10.8056 -10.7109 -10.4917  -9.8618
    -9.7621  -9.3807  -9.3367  -9.3058  -8.9601  -8.8496  -8.8021  -8.4814
    -8.0541  -7.9839  -7.7662  -7.6383  -6.5179  -5.9608  -5.4061  -5.2626
    -5.2358  -5.1004  -4.6522  -4.3234

          k = 0.3333-0.3333-0.3333 (164442 PWs)   bands (ev):

   -25.1986 -25.1927 -25.1813 -24.2228 -21.9168 -21.6658 -21.0661 -18.8741
   -17.2971 -16.8740 -14.9779 -14.9299 -13.8959 -13.0312 -12.8111 -12.5583
   -11.8841 -11.6297 -11.3535 -11.1271 -10.8057 -10.7109 -10.4917  -9.8618
    -9.7621  -9.3807  -9.3367  -9.3058  -8.9601  -8.8496  -8.8021  -8.4814
    -8.0541  -7.9839  -7.7662  -7.6383  -6.5179  -5.9608  -5.4062  -5.2626
    -5.2357  -5.1004  -4.6522  -4.3234

     highest occupied level (ev):    -4.3233

!    total energy              =    -412.70354067 Ry
     Harris-Foulkes estimate   =    -412.70354063 Ry
     estimated scf accuracy    <          9.0E-09 Ry

     total all-electron energy =     -1554.328442 Ry

     The total energy is the sum of the following terms:

     one-electron contribution =    -959.40401053 Ry
     hartree contribution      =     496.08124857 Ry
     xc contribution           =     -93.58698381 Ry
     ewald contribution        =     251.50306354 Ry
     one-center paw contrib.   =    -107.29685844 Ry

     convergence has been achieved in   9 iterations

     Forces acting on atoms (Ry/au):


     negative rho (up, down):  4.502E-04 0.000E+00
     atom    1 type  2   force =     0.00287313   -0.00100628   -0.00375278
     atom    2 type  2   force =    -0.00686763   -0.00041283   -0.00330938
     atom    3 type  2   force =     0.00094965    0.00223321   -0.00185806
     atom    4 type  2   force =    -0.00209486    0.00253356    0.00218826
     atom    5 type  2   force =     0.00839966    0.00090231   -0.00837102
     atom    6 type  2   force =    -0.00653666   -0.00048600   -0.00145230
     atom    7 type  2   force =     0.00078531   -0.00718116   -0.00758174
     atom    8 type  2   force =     0.00713338    0.00144416    0.00161938
     atom    9 type  2   force =     0.00104659   -0.00069113   -0.00999717
     atom   10 type  2   force =     0.00090694    0.00306285    0.00186315
     atom   11 type  2   force =     0.00563296   -0.00303295    0.00070970
     atom   12 type  2   force =    -0.00583588   -0.00355648    0.00168717
     atom   13 type  2   force =    -0.00279456   -0.00439632   -0.00101031
     atom   14 type  2   force =     0.00971215    0.00669277    0.00146570
     atom   15 type  2   force =    -0.00158100   -0.00429352   -0.00070040
     atom   16 type  2   force =     0.00169462    0.00263630    0.00038723
     atom   17 type  2   force =     0.00622994   -0.00064867    0.00643724
     atom   18 type  1   force =    -0.00273263    0.00191442    0.00286158
     atom   19 type  1   force =     0.00315964    0.00275030    0.00210846
     atom   20 type  1   force =    -0.00299114    0.00402965   -0.00541112
     atom   21 type  1   force =    -0.00272006    0.00192130   -0.00214976
     atom   22 type  1   force =     0.00272541   -0.00007122   -0.00063388
     atom   23 type  1   force =    -0.00321137    0.00366186    0.00264030
     atom   24 type  1   force =     0.00135630    0.00547931    0.00098984
     atom   25 type  1   force =    -0.01041386    0.00230994    0.00502190
     atom   26 type  3   force =     0.00271444   -0.00125841    0.00291075
     atom   27 type  3   force =    -0.00315275   -0.00245500    0.00537173
     atom   28 type  3   force =    -0.00026325   -0.00025515   -0.00278927
     atom   29 type  4   force =     0.00203606   -0.00774984    0.00714911
     atom   30 type  4   force =    -0.00404466    0.00064596    0.00737789
     atom   31 type  4   force =    -0.00449479   -0.00209477   -0.00049397
     atom   32 type  4   force =     0.00237893   -0.00262818   -0.00327824

     Total force =     0.039658     Total SCF correction =     0.000141

     number of scf cycles    =  50
     number of bfgs steps    =  48

     energy   old            =    -412.7011927814 Ry
     energy   new            =    -412.7035406670 Ry

     CASE: energy  _new < energy  _old

     new trust radius        =       0.1286668849 bohr

     The maximum number of steps has been reached.

     End of BFGS Geometry Optimization
Begin final coordinates

ATOMIC_POSITIONS (crystal)
H        0.663580276   0.895422454   0.743819754
H        0.539975603   0.858657786   0.697044536
H        0.739200528   0.712980832   0.707498618
H        0.716283581   0.692005322   0.498595171
H        0.562515019   0.619886458   0.771993233
H        0.632295081   0.558544399   0.652342046
H        0.484070367   0.646760210   0.546098068
H        0.654261508   0.276420576   0.467114396
H        0.465598381   0.243060388   0.440220357
H        0.612501188   0.162537589   0.245539144
H        0.394646768   0.322790838   0.236688899
H        0.510794185   0.413343504   0.257478365
H        0.415797621   0.434949424   0.465729297
H        0.292515152   0.391345288   0.391078606
H        0.619403974   0.400870449   0.416046173
H        0.296529794   0.659638984   0.234766670
H        0.251760512   0.521381320   0.217583378
C        0.656404976   0.737670039   0.672240640
C        0.675664525   0.762410198   0.548013017
C        0.582423649   0.631862196   0.682054989
C        0.515881671   0.270327400   0.366220133
C        0.530714035   0.166709454   0.292840961
C        0.448966830   0.360022120   0.301794778
C        0.376353995   0.430584877   0.382013259
C        0.369341262   0.552210200   0.346176759
N        0.609692698   0.828678682   0.737354105
N        0.624557869   0.316841261   0.397592687
N        0.300112004   0.577999649   0.259416439
O        0.650286783   0.849569344   0.501663763
O        0.477579871   0.642837026   0.628530770
O        0.460415163   0.093690880   0.284781063
O        0.425653132   0.625269854   0.393255925
End final coordinates



     Writing output data file aiida.save

     init_run     :     79.80s CPU    159.11s WALL (       1 calls)
     electrons    :  60138.96s CPU  75468.97s WALL (      50 calls)
     update_pot   :    254.55s CPU    309.21s WALL (      49 calls)
     forces       :   1786.33s CPU   2083.89s WALL (      50 calls)

     Called by init_run:
     wfcinit      :     65.82s CPU    137.93s WALL (       1 calls)
     potinit      :      2.60s CPU      4.06s WALL (       1 calls)

     Called by electrons:
     c_bands      :  50341.49s CPU  63463.43s WALL (     424 calls)
     sum_band     :   7378.76s CPU   9082.33s WALL (     424 calls)
     v_of_rho     :    431.02s CPU    557.05s WALL (     474 calls)
     newd         :   2077.58s CPU   2407.63s WALL (     474 calls)
     mix_rho      :     78.66s CPU    100.22s WALL (     424 calls)

     Called by c_bands:
     init_us_2    :    279.98s CPU    313.40s WALL (   13272 calls)
     cegterg      :  49823.70s CPU  62677.75s WALL (    5936 calls)

     Called by *egterg:
     h_psi        :  30534.51s CPU  37858.06s WALL (   28035 calls)
     s_psi        :   5424.02s CPU   5645.92s WALL (   28035 calls)
     g_psi        :     55.87s CPU     60.88s WALL (   22085 calls)
     cdiaghg      :    321.22s CPU    501.70s WALL (   27335 calls)

     Called by h_psi:
     add_vuspsi   :   5686.31s CPU   6001.77s WALL (   28035 calls)

     General routines
     calbec       :   7983.35s CPU   9807.43s WALL (   35357 calls)
     fft          :    592.05s CPU    932.52s WALL (    7983 calls)
     ffts         :     15.51s CPU     21.59s WALL (     898 calls)
     fftw         :  17493.27s CPU  24011.35s WALL ( 1795762 calls)
     interpolate  :     77.30s CPU     97.78s WALL (     898 calls)
     davcio       :      0.01s CPU      0.26s WALL (      14 calls)

     Parallel routines
     fft_scatter  :   9186.94s CPU  15735.26s WALL ( 1804643 calls)

     PAW routines
     PAW_pot      :     34.44s CPU     98.35s WALL (     523 calls)

     PWSCF        :    17h25m CPU       21h50m WALL


   This run was terminated on:  13:58:37  14Jan2023            

=------------------------------------------------------------------------------=
   JOB DONE.
=------------------------------------------------------------------------------=
