
     Program PWSCF v.5.1 starts on  8Jan2023 at 21:54:56 

     This program is part of the open-source Quantum ESPRESSO suite
     for quantum simulation of materials; please cite
         "P. Giannozzi et al., J. Phys.:Condens. Matter 21 395502 (2009);
          URL http://www.quantum-espresso.org", 
     in publications or presentations arising from this work. More details at
     http://www.quantum-espresso.org/quote

     Parallel version (MPI), running on    12 processors
     R & G space division:  proc/nbgrp/npool/nimage =      12
     Waiting for input...
     Reading input from standard input

     Current dimensions of program PWSCF are:
     Max number of different atomic species (ntypx) = 10
     Max number of k-points (npk) =  40000
     Max angular momentum in pseudopotentials (lmaxx) =  3
               file C.pbesol-n-kjpaw_psl.1.0.0.UPF: wavefunction(s)  2S 2P renormalized
               file H.pbesol-kjpaw_psl.0.1.UPF: wavefunction(s)  1S renormalized
               file N.pbesol-n-kjpaw_psl.0.1.UPF: wavefunction(s)  2P renormalized
               file O.pbesol-n-kjpaw_psl.0.1.UPF: wavefunction(s)  2P renormalized

     Subspace diagonalization in iterative solution of the eigenvalue problem:
     scalapack distributed-memory algorithm (size of sub-group:  2*  2 procs)


     Parallelization info
     --------------------
     sticks:   dense  smooth     PW     G-vecs:    dense   smooth      PW
     Min         487     244     66                27997     9906    1422
     Max         488     245     67                28000     9935    1427
     Sum        5845    2933    793               335971   119009   17071



     bravais-lattice index     =            0
     lattice parameter (alat)  =       9.5809  a.u.
     unit-cell volume          =     879.4689 (a.u.)^3
     number of atoms/cell      =           13
     number of atomic types    =            4
     number of electrons       =        36.00
     number of Kohn-Sham states=           18
     kinetic-energy cutoff     =     100.0000  Ry
     charge density cutoff     =     800.0000  Ry
     convergence threshold     =      1.0E-08
     mixing beta               =       0.4000
     number of iterations used =            8  plain     mixing
     Exchange-correlation      =  SLA  PW   PSX  PSC ( 1  4 10  8 0)
     nstep                     =           50


     celldm(1)=   9.580911  celldm(2)=   0.000000  celldm(3)=   0.000000
     celldm(4)=   0.000000  celldm(5)=   0.000000  celldm(6)=   0.000000

     crystal axes: (cart. coord. in units of alat)
               a(1) = (   1.000000   0.000000   0.000000 )  
               a(2) = (   0.000000   1.000000   0.000000 )  
               a(3) = (   0.000000   0.000000   1.000000 )  

     reciprocal axes: (cart. coord. in units 2 pi/alat)
               b(1) = (  1.000000  0.000000  0.000000 )  
               b(2) = (  0.000000  1.000000  0.000000 )  
               b(3) = (  0.000000  0.000000  1.000000 )  


     PseudoPot. # 1 for  C read from file:
     ./pseudo/C.pbesol-n-kjpaw_psl.1.0.0.UPF
     MD5 check sum: 5f3a56537b2bcef3348431d8311bb923
     Pseudo is Projector augmented-wave + core cor, Zval =  4.0
     Generated using "atomic" code by A. Dal Corso  v.6.0 svn rev. 13079
     Shape of augmentation charge: PSQ
     Using radial grid of 1073 points,  4 beta functions with: 
                l(1) =   0
                l(2) =   0
                l(3) =   1
                l(4) =   1
     Q(r) pseudized with 0 coefficients 


     PseudoPot. # 2 for  H read from file:
     ./pseudo/H.pbesol-kjpaw_psl.0.1.UPF
     MD5 check sum: 27a6b98f1514c59d399e798f1258b8b7
     Pseudo is Projector augmented-wave, Zval =  1.0
     Generated using "atomic" code by A. Dal Corso  v.5.0.2 svn rev. 9415
     Shape of augmentation charge: PSQ
     Using radial grid of  929 points,  2 beta functions with: 
                l(1) =   0
                l(2) =   0
     Q(r) pseudized with 0 coefficients 


     PseudoPot. # 3 for  N read from file:
     ./pseudo/N.pbesol-n-kjpaw_psl.0.1.UPF
     MD5 check sum: 15bd223d5d75e9eda893d0f4e6bdad1b
     Pseudo is Projector augmented-wave + core cor, Zval =  5.0
     Generated using "atomic" code by A. Dal Corso  v.6.3
     Shape of augmentation charge: PSQ
     Using radial grid of 1085 points,  4 beta functions with: 
                l(1) =   0
                l(2) =   0
                l(3) =   1
                l(4) =   1
     Q(r) pseudized with 0 coefficients 


     PseudoPot. # 4 for  O read from file:
     ./pseudo/O.pbesol-n-kjpaw_psl.0.1.UPF
     MD5 check sum: 81d73d1479e654e5638b0319f0d6c2c7
     Pseudo is Projector augmented-wave + core cor, Zval =  6.0
     Generated using "atomic" code by A. Dal Corso  v.6.0 svn rev. 13079
     Shape of augmentation charge: BESSEL
     Using radial grid of 1095 points,  4 beta functions with: 
                l(1) =   0
                l(2) =   0
                l(3) =   1
                l(4) =   1
     Q(r) pseudized with 0 coefficients 


     atomic species   valence    mass     pseudopotential
        C              4.00    12.01070      C( 1.00)
        H              1.00     1.00794      H( 1.00)
        N              5.00    14.00670      N( 1.00)
        O              6.00    15.99940      O( 1.00)

     No symmetry found



   Cartesian axes

     site n.     atom                  positions (alat units)
         1           H   tau(   1) = (   0.6345170   0.8143990   0.8525640  )
         2           H   tau(   2) = (   0.5029590   0.9000000   0.5677510  )
         3           H   tau(   3) = (   0.8250490   0.4889550   0.6657790  )
         4           H   tau(   4) = (   0.8512820   0.5183440   0.1912230  )
         5           H   tau(   5) = (   0.4159760   0.2719920   0.8476330  )
         6           H   tau(   6) = (   0.5644970   0.1000000   0.5752470  )
         7           H   tau(   7) = (   0.1487180   0.1100600   0.4756410  )
         8           C   tau(   8) = (   0.6301780   0.5201190   0.5803750  )
         9           C   tau(   9) = (   0.6613410   0.5573970   0.2839250  )
        10           C   tau(  10) = (   0.4577910   0.2761340   0.6367850  )
        11           N   tau(  11) = (   0.5173570   0.7546350   0.7030570  )
        12           O   tau(  12) = (   0.4739650   0.6313610   0.1474360  )
        13           O   tau(  13) = (   0.2142010   0.2859960   0.5010850  )

     number of k points=   172

     Number of k-points >= 100: set verbosity='high' to print them.

     Dense  grid:   335971 G-vectors     FFT dimensions: (  90,  90,  90)

     Smooth grid:   119009 G-vectors     FFT dimensions: (  64,  64,  64)

     Largest allocated arrays     est. size (Mb)     dimensions
        Kohn-Sham Wavefunctions         0.34 Mb     (    1251,   18)
        NL pseudopotentials             1.18 Mb     (    1251,   62)
        Each V/rho on FFT grid          0.99 Mb     (   64800)
        Each G-vector array             0.21 Mb     (   27999)
        G-vector shells                 0.01 Mb     (    1505)
     Largest temporary arrays     est. size (Mb)     dimensions
        Auxiliary wavefunctions         1.37 Mb     (    1251,   72)
        Each subspace H/S matrix        0.02 Mb     (      36,   36)
        Each <psi_i|beta_j> matrix      0.02 Mb     (      62,   18)
        Arrays for rho mixing           7.91 Mb     (   64800,    8)

     Initial potential from superposition of free atoms

     starting charge   35.99979, renormalised to   36.00000
     Starting wfc are   31 randomized atomic wfcs
     Checking if some PAW data can be deallocated... 

     total cpu time spent up to now is       39.5 secs

     per-process dynamical memory:    84.3 Mb

     Self-consistent Calculation

     iteration #  1     ecut=   100.00 Ry     beta=0.40
     Davidson diagonalization with overlap
     ethr =  1.00E-02,  avg # of iterations =  2.0

     total cpu time spent up to now is      107.9 secs

     total energy              =    -172.24220831 Ry
     Harris-Foulkes estimate   =    -172.90696730 Ry
     estimated scf accuracy    <       1.42375934 Ry

     iteration #  2     ecut=   100.00 Ry     beta=0.40
     Davidson diagonalization with overlap
     ethr =  3.95E-03,  avg # of iterations =  2.0

     total cpu time spent up to now is      169.7 secs

     total energy              =    -172.42393866 Ry
     Harris-Foulkes estimate   =    -172.48149306 Ry
     estimated scf accuracy    <       0.16779446 Ry

     iteration #  3     ecut=   100.00 Ry     beta=0.40
     Davidson diagonalization with overlap
     ethr =  4.66E-04,  avg # of iterations =  2.0

     total cpu time spent up to now is      225.9 secs

     total energy              =    -172.42245446 Ry
     Harris-Foulkes estimate   =    -172.43990630 Ry
     estimated scf accuracy    <       0.04495668 Ry

     iteration #  4     ecut=   100.00 Ry     beta=0.40
     Davidson diagonalization with overlap
     ethr =  1.25E-04,  avg # of iterations =  2.4

     total cpu time spent up to now is      302.9 secs

     total energy              =    -172.42670936 Ry
     Harris-Foulkes estimate   =    -172.42909038 Ry
     estimated scf accuracy    <       0.00549701 Ry

     iteration #  5     ecut=   100.00 Ry     beta=0.40
     Davidson diagonalization with overlap
     ethr =  1.53E-05,  avg # of iterations =  3.1

     total cpu time spent up to now is      359.0 secs

     total energy              =    -172.42767700 Ry
     Harris-Foulkes estimate   =    -172.42786580 Ry
     estimated scf accuracy    <       0.00077789 Ry

     iteration #  6     ecut=   100.00 Ry     beta=0.40
     Davidson diagonalization with overlap
     ethr =  2.16E-06,  avg # of iterations =  2.0

     total cpu time spent up to now is      397.1 secs

     total energy              =    -172.42775580 Ry
     Harris-Foulkes estimate   =    -172.42778296 Ry
     estimated scf accuracy    <       0.00007083 Ry

     iteration #  7     ecut=   100.00 Ry     beta=0.40
     Davidson diagonalization with overlap
     ethr =  1.97E-07,  avg # of iterations =  4.0

     total cpu time spent up to now is      446.6 secs

     total energy              =    -172.42776469 Ry
     Harris-Foulkes estimate   =    -172.42778381 Ry
     estimated scf accuracy    <       0.00003694 Ry

     iteration #  8     ecut=   100.00 Ry     beta=0.40
     Davidson diagonalization with overlap
     ethr =  1.03E-07,  avg # of iterations =  4.0

     total cpu time spent up to now is      495.9 secs

     total energy              =    -172.42777362 Ry
     Harris-Foulkes estimate   =    -172.42777996 Ry
     estimated scf accuracy    <       0.00001628 Ry

     iteration #  9     ecut=   100.00 Ry     beta=0.40
     Davidson diagonalization with overlap
     ethr =  4.52E-08,  avg # of iterations =  3.2

     total cpu time spent up to now is      539.0 secs

     total energy              =    -172.42777689 Ry
     Harris-Foulkes estimate   =    -172.42777692 Ry
     estimated scf accuracy    <       0.00000058 Ry

     iteration # 10     ecut=   100.00 Ry     beta=0.40
     Davidson diagonalization with overlap
     ethr =  1.60E-09,  avg # of iterations =  3.0

     total cpu time spent up to now is      583.4 secs

     total energy              =    -172.42777702 Ry
     Harris-Foulkes estimate   =    -172.42777703 Ry
     estimated scf accuracy    <       0.00000006 Ry

     iteration # 11     ecut=   100.00 Ry     beta=0.40
     Davidson diagonalization with overlap
     ethr =  1.59E-10,  avg # of iterations =  3.0

     total cpu time spent up to now is      623.2 secs

     End of self-consistent calculation

     Number of k-points >= 100: set verbosity='high' to print the bands.

     highest occupied level (ev):     0.5250

!    total energy              =    -172.42777703 Ry
     Harris-Foulkes estimate   =    -172.42777703 Ry
     estimated scf accuracy    <          7.0E-09 Ry

     total all-electron energy =      -644.804041 Ry

     The total energy is the sum of the following terms:

     one-electron contribution =    -123.00125073 Ry
     hartree contribution      =      74.26707893 Ry
     xc contribution           =     -38.76716660 Ry
     ewald contribution        =     -41.12195202 Ry
     one-center paw contrib.   =     -43.80448661 Ry

     convergence has been achieved in  11 iterations

     Forces acting on atoms (Ry/au):

     atom    1 type  2   force =    -0.00001797    0.01268201    0.00532499
     atom    2 type  2   force =    -0.01574483   -0.06028360   -0.01508471
     atom    3 type  2   force =     0.01663346   -0.02054726   -0.00021253
     atom    4 type  2   force =     0.03530771   -0.01311694   -0.00784128
     atom    5 type  2   force =     0.01068584   -0.00582475    0.02037518
     atom    6 type  2   force =     0.03593796    0.07798889   -0.00037687
     atom    7 type  2   force =    -0.00241690   -0.02621399    0.00141677
     atom    8 type  1   force =    -0.01864861   -0.00564482    0.00112984
     atom    9 type  1   force =    -0.07400915    0.01838787    0.01894639
     atom   10 type  1   force =    -0.00181282    0.05398075   -0.02647794
     atom   11 type  3   force =    -0.01347500   -0.04257812   -0.05859028
     atom   12 type  4   force =     0.03205424   -0.02061472    0.07060919
     atom   13 type  4   force =    -0.00449392    0.03178470   -0.00921876

     Total force =     0.195613     Total SCF correction =     0.000139

     BFGS Geometry Optimization

     number of scf cycles    =   1
     number of bfgs steps    =   0

     energy   new            =    -172.4277770283 Ry

     new trust radius        =       0.0858716832 bohr
     new conv_thr            =       0.0000000100 Ry


ATOMIC_POSITIONS (crystal)
H        0.634515124   0.815722674   0.853119791
H        0.501315646   0.893707948   0.566176545
H        0.826785104   0.486810396   0.665756818
H        0.854967214   0.516974929   0.190404572
H        0.417091326   0.271384046   0.849759643
H        0.568247996   0.108140028   0.575207664
H        0.148465738   0.107323936   0.475788874
C        0.628231566   0.519529826   0.580492927
C        0.653616354   0.559316219   0.285902514
C        0.457601788   0.281768197   0.634021386
N        0.515950558   0.750190942   0.696941687
O        0.477310635   0.629209355   0.154805778
O        0.213731950   0.289313502   0.500122800



     Writing output data file aiida.save
     NEW-OLD atomic charge density approx. for the potential

     total cpu time spent up to now is      632.8 secs

     per-process dynamical memory:    90.2 Mb

     Self-consistent Calculation

     iteration #  1     ecut=   100.00 Ry     beta=0.40
     Davidson diagonalization with overlap
     ethr =  1.00E-06,  avg # of iterations =  7.9

     total cpu time spent up to now is      740.4 secs

     total energy              =    -172.43873433 Ry
     Harris-Foulkes estimate   =    -172.44652525 Ry
     estimated scf accuracy    <       0.00944252 Ry

     iteration #  2     ecut=   100.00 Ry     beta=0.40
     Davidson diagonalization with overlap
     ethr =  2.62E-05,  avg # of iterations =  2.0

     total cpu time spent up to now is      778.6 secs

     total energy              =    -172.43945895 Ry
     Harris-Foulkes estimate   =    -172.43983416 Ry
     estimated scf accuracy    <       0.00133779 Ry

     iteration #  3     ecut=   100.00 Ry     beta=0.40
     Davidson diagonalization with overlap
     ethr =  3.72E-06,  avg # of iterations =  2.0

     total cpu time spent up to now is      811.3 secs

     total energy              =    -172.43949940 Ry
     Harris-Foulkes estimate   =    -172.43956697 Ry
     estimated scf accuracy    <       0.00027032 Ry

     iteration #  4     ecut=   100.00 Ry     beta=0.40
     Davidson diagonalization with overlap
     ethr =  7.51E-07,  avg # of iterations =  2.8

     total cpu time spent up to now is      853.6 secs

     total energy              =    -172.43953817 Ry
     Harris-Foulkes estimate   =    -172.43954929 Ry
     estimated scf accuracy    <       0.00002479 Ry

     iteration #  5     ecut=   100.00 Ry     beta=0.40
     Davidson diagonalization with overlap
     ethr =  6.89E-08,  avg # of iterations =  3.5

     total cpu time spent up to now is      909.9 secs

     total energy              =    -172.43954441 Ry
     Harris-Foulkes estimate   =    -172.43954815 Ry
     estimated scf accuracy    <       0.00001093 Ry

     iteration #  6     ecut=   100.00 Ry     beta=0.40
     Davidson diagonalization with overlap
     ethr =  3.04E-08,  avg # of iterations =  3.2

     total cpu time spent up to now is      949.3 secs

     total energy              =    -172.43954645 Ry
     Harris-Foulkes estimate   =    -172.43954662 Ry
     estimated scf accuracy    <       0.00000107 Ry

     iteration #  7     ecut=   100.00 Ry     beta=0.40
     Davidson diagonalization with overlap
     ethr =  2.97E-09,  avg # of iterations =  2.5

     total cpu time spent up to now is      988.3 secs

     total energy              =    -172.43954662 Ry
     Harris-Foulkes estimate   =    -172.43954663 Ry
     estimated scf accuracy    <       0.00000009 Ry

     iteration #  8     ecut=   100.00 Ry     beta=0.40
     Davidson diagonalization with overlap
     ethr =  2.50E-10,  avg # of iterations =  3.1

     total cpu time spent up to now is     1033.4 secs

     total energy              =    -172.43954664 Ry
     Harris-Foulkes estimate   =    -172.43954664 Ry
     estimated scf accuracy    <       0.00000002 Ry

     iteration #  9     ecut=   100.00 Ry     beta=0.40
     Davidson diagonalization with overlap
     ethr =  4.73E-11,  avg # of iterations =  2.9

     total cpu time spent up to now is     1081.1 secs

     End of self-consistent calculation

     Number of k-points >= 100: set verbosity='high' to print the bands.

     highest occupied level (ev):     0.5114

!    total energy              =    -172.43954664 Ry
     Harris-Foulkes estimate   =    -172.43954664 Ry
     estimated scf accuracy    <          3.6E-09 Ry

     total all-electron energy =      -644.815811 Ry

     The total energy is the sum of the following terms:

     one-electron contribution =    -125.83770126 Ry
     hartree contribution      =      75.61105004 Ry
     xc contribution           =     -38.82226163 Ry
     ewald contribution        =     -39.58740407 Ry
     one-center paw contrib.   =     -43.80322971 Ry

     convergence has been achieved in   9 iterations

     Forces acting on atoms (Ry/au):

     atom    1 type  2   force =    -0.03560619   -0.00756090   -0.03787496
     atom    2 type  2   force =    -0.01534278   -0.01012806   -0.04159159
     atom    3 type  2   force =    -0.00269386   -0.01686117   -0.00990756
     atom    4 type  2   force =    -0.01153363   -0.00251859    0.01656149
     atom    5 type  2   force =     0.01299111   -0.00175763   -0.00684714
     atom    6 type  2   force =     0.02867436    0.04835021   -0.00500948
     atom    7 type  2   force =     0.01405873    0.02153950    0.00811848
     atom    8 type  1   force =     0.01281802   -0.01074101    0.00459321
     atom    9 type  1   force =     0.14099215   -0.05756427    0.07708056
     atom   10 type  1   force =    -0.01045265    0.01421257    0.01762015
     atom   11 type  3   force =     0.01374987   -0.00928327    0.04409806
     atom   12 type  4   force =    -0.12582288    0.04759301   -0.04863149
     atom   13 type  4   force =    -0.02183226   -0.01528038   -0.01820973

     Total force =     0.252074     Total SCF correction =     0.000094

     number of scf cycles    =   2
     number of bfgs steps    =   1

     energy   old            =    -172.4277770283 Ry
     energy   new            =    -172.4395466375 Ry

     CASE: energy  _new < energy  _old

     new trust radius        =       0.1041425404 bohr
     new conv_thr            =       0.0000000100 Ry


ATOMIC_POSITIONS (crystal)
H        0.631879539   0.816155392   0.850734326
H        0.498948896   0.888242837   0.561919524
H        0.827887001   0.483955633   0.665007222
H        0.856875975   0.515762498   0.191016403
H        0.418888346   0.270798359   0.850846983
H        0.573180684   0.117817887   0.574807577
H        0.149316748   0.106866797   0.476500317
C        0.627721023   0.518293617   0.580921121
C        0.658257545   0.556495995   0.293087132
C        0.456686679   0.287042428   0.633253642
N        0.515913673   0.746173383   0.695620739
O        0.470509660   0.631117695   0.156731546
O        0.211765232   0.290669478   0.498054468



     Writing output data file aiida.save
     NEW-OLD atomic charge density approx. for the potential

     total cpu time spent up to now is     1091.1 secs

     per-process dynamical memory:    97.9 Mb

     Self-consistent Calculation

     iteration #  1     ecut=   100.00 Ry     beta=0.40
     Davidson diagonalization with overlap
     ethr =  1.00E-06,  avg # of iterations =  7.6

     total cpu time spent up to now is     1194.7 secs

     total energy              =    -172.45280042 Ry
     Harris-Foulkes estimate   =    -172.44105338 Ry
     estimated scf accuracy    <       0.00641550 Ry

     iteration #  2     ecut=   100.00 Ry     beta=0.40
     Davidson diagonalization with overlap
     ethr =  1.78E-05,  avg # of iterations =  2.0

     total cpu time spent up to now is     1228.9 secs

     total energy              =    -172.45300439 Ry
     Harris-Foulkes estimate   =    -172.45335738 Ry
     estimated scf accuracy    <       0.00101563 Ry

     iteration #  3     ecut=   100.00 Ry     beta=0.40
     Davidson diagonalization with overlap
     ethr =  2.82E-06,  avg # of iterations =  2.0

     total cpu time spent up to now is     1264.8 secs

     total energy              =    -172.45309017 Ry
     Harris-Foulkes estimate   =    -172.45312643 Ry
     estimated scf accuracy    <       0.00015161 Ry

     iteration #  4     ecut=   100.00 Ry     beta=0.40
     Davidson diagonalization with overlap
     ethr =  4.21E-07,  avg # of iterations =  2.0

     total cpu time spent up to now is     1306.1 secs

     total energy              =    -172.45310611 Ry
     Harris-Foulkes estimate   =    -172.45310810 Ry
     estimated scf accuracy    <       0.00001472 Ry

     iteration #  5     ecut=   100.00 Ry     beta=0.40
     Davidson diagonalization with overlap
     ethr =  4.09E-08,  avg # of iterations =  3.1

     total cpu time spent up to now is     1349.5 secs

     total energy              =    -172.45310876 Ry
     Harris-Foulkes estimate   =    -172.45310929 Ry
     estimated scf accuracy    <       0.00000188 Ry

     iteration #  6     ecut=   100.00 Ry     beta=0.40
     Davidson diagonalization with overlap
     ethr =  5.23E-09,  avg # of iterations =  3.2

     total cpu time spent up to now is     1396.1 secs

     total energy              =    -172.45310909 Ry
     Harris-Foulkes estimate   =    -172.45310932 Ry
     estimated scf accuracy    <       0.00000066 Ry

     iteration #  7     ecut=   100.00 Ry     beta=0.40
     Davidson diagonalization with overlap
     ethr =  1.84E-09,  avg # of iterations =  3.5

     total cpu time spent up to now is     1437.9 secs

     total energy              =    -172.45310921 Ry
     Harris-Foulkes estimate   =    -172.45310923 Ry
     estimated scf accuracy    <       0.00000005 Ry

     iteration #  8     ecut=   100.00 Ry     beta=0.40
     Davidson diagonalization with overlap
     ethr =  1.52E-10,  avg # of iterations =  3.9

     total cpu time spent up to now is     1480.5 secs

     End of self-consistent calculation

     Number of k-points >= 100: set verbosity='high' to print the bands.

     highest occupied level (ev):     0.4858

!    total energy              =    -172.45310923 Ry
     Harris-Foulkes estimate   =    -172.45310923 Ry
     estimated scf accuracy    <          6.5E-09 Ry

     total all-electron energy =      -644.829373 Ry

     The total energy is the sum of the following terms:

     one-electron contribution =    -124.95982447 Ry
     hartree contribution      =      75.22640921 Ry
     xc contribution           =     -38.74158881 Ry
     ewald contribution        =     -40.17135566 Ry
     one-center paw contrib.   =     -43.80674950 Ry

     convergence has been achieved in   8 iterations

     Forces acting on atoms (Ry/au):

     atom    1 type  2   force =    -0.03136988   -0.00980708   -0.03113167
     atom    2 type  2   force =    -0.01293582   -0.00138006   -0.03325846
     atom    3 type  2   force =    -0.00991883   -0.01707407   -0.00630184
     atom    4 type  2   force =    -0.02057691   -0.00046007    0.02290316
     atom    5 type  2   force =     0.01037943    0.00420203   -0.01703549
     atom    6 type  2   force =     0.01944788    0.01913526   -0.00788690
     atom    7 type  2   force =     0.01536047    0.02486125    0.00789393
     atom    8 type  1   force =     0.03637383   -0.00696505    0.01501639
     atom    9 type  1   force =    -0.01485687    0.01067690   -0.06803590
     atom   10 type  1   force =    -0.02204675   -0.02635939    0.02706586
     atom   11 type  3   force =     0.00435529    0.03580594    0.03870796
     atom   12 type  4   force =     0.03734932   -0.01456884    0.06190385
     atom   13 type  4   force =    -0.01156117   -0.01806684   -0.00984089

     Total force =     0.155276     Total SCF correction =     0.000102

     number of scf cycles    =   3
     number of bfgs steps    =   2

     energy   old            =    -172.4395466375 Ry
     energy   new            =    -172.4531092277 Ry

     CASE: energy  _new < energy  _old

     new trust radius        =       0.0741555564 bohr
     new conv_thr            =       0.0000000100 Ry


ATOMIC_POSITIONS (crystal)
H        0.627490907   0.815361346   0.846454907
H        0.496578437   0.885651851   0.556596882
H        0.827418155   0.480975241   0.664004386
H        0.855684179   0.515170851   0.193563445
H        0.420752535   0.270918293   0.849672072
H        0.577392574   0.124241197   0.573854925
H        0.151243580   0.109179185   0.477617677
C        0.630997475   0.517010548   0.582544049
C        0.660211060   0.555725664   0.290605426
C        0.454145043   0.287013297   0.635599406
N        0.516431036   0.747670366   0.699056127
O        0.469851137   0.631038048   0.162857902
O        0.209634881   0.289436113   0.496073795



     Writing output data file aiida.save
     NEW-OLD atomic charge density approx. for the potential

     total cpu time spent up to now is     1489.8 secs

     per-process dynamical memory:    97.9 Mb

     Self-consistent Calculation

     iteration #  1     ecut=   100.00 Ry     beta=0.40
     Davidson diagonalization with overlap
     ethr =  1.00E-06,  avg # of iterations =  7.1

     total cpu time spent up to now is     1588.4 secs

     total energy              =    -172.46188941 Ry
     Harris-Foulkes estimate   =    -172.46347283 Ry
     estimated scf accuracy    <       0.00238972 Ry

     iteration #  2     ecut=   100.00 Ry     beta=0.40
     Davidson diagonalization with overlap
     ethr =  6.64E-06,  avg # of iterations =  1.2

     total cpu time spent up to now is     1619.8 secs

     total energy              =    -172.46182193 Ry
     Harris-Foulkes estimate   =    -172.46200363 Ry
     estimated scf accuracy    <       0.00053613 Ry

     iteration #  3     ecut=   100.00 Ry     beta=0.40
     Davidson diagonalization with overlap
     ethr =  1.49E-06,  avg # of iterations =  3.0

     total cpu time spent up to now is     1666.3 secs

     total energy              =    -172.46190847 Ry
     Harris-Foulkes estimate   =    -172.46192352 Ry
     estimated scf accuracy    <       0.00005127 Ry

     iteration #  4     ecut=   100.00 Ry     beta=0.40
     Davidson diagonalization with overlap
     ethr =  1.42E-07,  avg # of iterations =  2.0

     total cpu time spent up to now is     1700.0 secs

     total energy              =    -172.46191622 Ry
     Harris-Foulkes estimate   =    -172.46191617 Ry
     estimated scf accuracy    <       0.00000835 Ry

     iteration #  5     ecut=   100.00 Ry     beta=0.40
     Davidson diagonalization with overlap
     ethr =  2.32E-08,  avg # of iterations =  2.0

     total cpu time spent up to now is     1734.3 secs

     total energy              =    -172.46191689 Ry
     Harris-Foulkes estimate   =    -172.46191703 Ry
     estimated scf accuracy    <       0.00000070 Ry

     iteration #  6     ecut=   100.00 Ry     beta=0.40
     Davidson diagonalization with overlap
     ethr =  1.95E-09,  avg # of iterations =  3.9

     total cpu time spent up to now is     1780.6 secs

     total energy              =    -172.46191707 Ry
     Harris-Foulkes estimate   =    -172.46191709 Ry
     estimated scf accuracy    <       0.00000015 Ry

     iteration #  7     ecut=   100.00 Ry     beta=0.40
     Davidson diagonalization with overlap
     ethr =  4.03E-10,  avg # of iterations =  3.0

     total cpu time spent up to now is     1817.2 secs

     total energy              =    -172.46191710 Ry
     Harris-Foulkes estimate   =    -172.46191709 Ry
     estimated scf accuracy    <       0.00000002 Ry

     iteration #  8     ecut=   100.00 Ry     beta=0.40
     Davidson diagonalization with overlap
     ethr =  5.87E-11,  avg # of iterations =  2.0

     total cpu time spent up to now is     1853.2 secs

     End of self-consistent calculation

     Number of k-points >= 100: set verbosity='high' to print the bands.

     highest occupied level (ev):     0.5314

!    total energy              =    -172.46191710 Ry
     Harris-Foulkes estimate   =    -172.46191710 Ry
     estimated scf accuracy    <          2.6E-09 Ry

     total all-electron energy =      -644.838181 Ry

     The total energy is the sum of the following terms:

     one-electron contribution =    -124.76767077 Ry
     hartree contribution      =      75.12612894 Ry
     xc contribution           =     -38.78995505 Ry
     ewald contribution        =     -40.22510587 Ry
     one-center paw contrib.   =     -43.80531435 Ry

     convergence has been achieved in   8 iterations

     Forces acting on atoms (Ry/au):

     atom    1 type  2   force =     0.01274545    0.02032719    0.02453979
     atom    2 type  2   force =    -0.00736805   -0.01442569   -0.00485616
     atom    3 type  2   force =     0.01009661   -0.01829427    0.00603685
     atom    4 type  2   force =    -0.00214394   -0.00398000    0.00496753
     atom    5 type  2   force =     0.00046819    0.00150632    0.00309390
     atom    6 type  2   force =     0.01120488    0.00120727   -0.00653929
     atom    7 type  2   force =    -0.00087444   -0.01763429    0.00236861
     atom    8 type  1   force =    -0.00918559    0.01084044    0.00561679
     atom    9 type  1   force =    -0.02254637    0.00590484   -0.00540574
     atom   10 type  1   force =    -0.00140280   -0.00919411   -0.00843461
     atom   11 type  3   force =    -0.02755155    0.00620766   -0.05744517
     atom   12 type  4   force =     0.02062963   -0.00464786    0.03039287
     atom   13 type  4   force =     0.01592798    0.02218249    0.00566461

     Total force =     0.098443     Total SCF correction =     0.000078

     number of scf cycles    =   4
     number of bfgs steps    =   3

     energy   old            =    -172.4531092277 Ry
     energy   new            =    -172.4619171009 Ry

     CASE: energy  _new < energy  _old

     new trust radius        =       0.0431981233 bohr
     new conv_thr            =       0.0000000100 Ry


ATOMIC_POSITIONS (crystal)
H        0.626767946   0.816955043   0.846859321
H        0.494858085   0.883154966   0.553779489
H        0.828234932   0.477995726   0.664104686
H        0.855027936   0.514534154   0.195062245
H        0.421611715   0.271050916   0.849552519
H        0.580317455   0.127342663   0.572861359
H        0.151974633   0.108496917   0.478321522
C        0.631283057   0.517450995   0.583648778
C        0.660824320   0.555136762   0.290691165
C        0.453060196   0.286528961   0.635731820
N        0.514171001   0.748433055   0.695229961
O        0.469582754   0.631314070   0.166981560
O        0.210116968   0.290997770   0.495676573



     Writing output data file aiida.save
     NEW-OLD atomic charge density approx. for the potential

     total cpu time spent up to now is     1862.7 secs

     per-process dynamical memory:    97.9 Mb

     Self-consistent Calculation

     iteration #  1     ecut=   100.00 Ry     beta=0.40
     Davidson diagonalization with overlap
     ethr =  1.00E-06,  avg # of iterations =  5.9

     total cpu time spent up to now is     1944.8 secs

     total energy              =    -172.46565556 Ry
     Harris-Foulkes estimate   =    -172.46673760 Ry
     estimated scf accuracy    <       0.00105443 Ry

     iteration #  2     ecut=   100.00 Ry     beta=0.40
     Davidson diagonalization with overlap
     ethr =  2.93E-06,  avg # of iterations =  2.0

     total cpu time spent up to now is     1977.7 secs

     total energy              =    -172.46568930 Ry
     Harris-Foulkes estimate   =    -172.46573956 Ry
     estimated scf accuracy    <       0.00017877 Ry

     iteration #  3     ecut=   100.00 Ry     beta=0.40
     Davidson diagonalization with overlap
     ethr =  4.97E-07,  avg # of iterations =  2.7

     total cpu time spent up to now is     2018.4 secs

     total energy              =    -172.46571515 Ry
     Harris-Foulkes estimate   =    -172.46571811 Ry
     estimated scf accuracy    <       0.00002193 Ry

     iteration #  4     ecut=   100.00 Ry     beta=0.40
     Davidson diagonalization with overlap
     ethr =  6.09E-08,  avg # of iterations =  2.1

     total cpu time spent up to now is     2055.2 secs

     total energy              =    -172.46571803 Ry
     Harris-Foulkes estimate   =    -172.46571791 Ry
     estimated scf accuracy    <       0.00000313 Ry

     iteration #  5     ecut=   100.00 Ry     beta=0.40
     Davidson diagonalization with overlap
     ethr =  8.70E-09,  avg # of iterations =  2.5

     total cpu time spent up to now is     2090.4 secs

     total energy              =    -172.46571831 Ry
     Harris-Foulkes estimate   =    -172.46571839 Ry
     estimated scf accuracy    <       0.00000039 Ry

     iteration #  6     ecut=   100.00 Ry     beta=0.40
     Davidson diagonalization with overlap
     ethr =  1.09E-09,  avg # of iterations =  3.6

     total cpu time spent up to now is     2139.8 secs

     total energy              =    -172.46571838 Ry
     Harris-Foulkes estimate   =    -172.46571844 Ry
     estimated scf accuracy    <       0.00000013 Ry

     iteration #  7     ecut=   100.00 Ry     beta=0.40
     Davidson diagonalization with overlap
     ethr =  3.60E-10,  avg # of iterations =  3.4

     total cpu time spent up to now is     2187.1 secs

     total energy              =    -172.46571841 Ry
     Harris-Foulkes estimate   =    -172.46571841 Ry
     estimated scf accuracy    <       0.00000002 Ry

     iteration #  8     ecut=   100.00 Ry     beta=0.40
     Davidson diagonalization with overlap
     ethr =  5.17E-11,  avg # of iterations =  3.0

     total cpu time spent up to now is     2228.5 secs

     End of self-consistent calculation

     Number of k-points >= 100: set verbosity='high' to print the bands.

     highest occupied level (ev):     0.5262

!    total energy              =    -172.46571841 Ry
     Harris-Foulkes estimate   =    -172.46571841 Ry
     estimated scf accuracy    <          1.5E-09 Ry

     total all-electron energy =      -644.841983 Ry

     The total energy is the sum of the following terms:

     one-electron contribution =    -125.05482889 Ry
     hartree contribution      =      75.27161625 Ry
     xc contribution           =     -38.78638720 Ry
     ewald contribution        =     -40.09086345 Ry
     one-center paw contrib.   =     -43.80525512 Ry

     convergence has been achieved in   8 iterations

     Forces acting on atoms (Ry/au):

     atom    1 type  2   force =    -0.01111948    0.00979222   -0.00397319
     atom    2 type  2   force =    -0.00766011    0.00758240   -0.02331986
     atom    3 type  2   force =     0.00537502   -0.01234273    0.00781414
     atom    4 type  2   force =     0.00493751   -0.00575905   -0.00184291
     atom    5 type  2   force =    -0.00208551   -0.00031887    0.00628201
     atom    6 type  2   force =     0.00702538   -0.00620258   -0.00641182
     atom    7 type  2   force =     0.00210279    0.00022402    0.00293302
     atom    8 type  1   force =    -0.00960334    0.00177483   -0.00265850
     atom    9 type  1   force =    -0.02116749    0.00212449    0.01640136
     atom   10 type  1   force =     0.01289705    0.00179564   -0.01081168
     atom   11 type  3   force =     0.00056081   -0.00046793    0.00156621
     atom   12 type  4   force =     0.01069027    0.00244780    0.01019884
     atom   13 type  4   force =     0.00804711   -0.00065024    0.00382236

     Total force =     0.052934     Total SCF correction =     0.000060

     number of scf cycles    =   5
     number of bfgs steps    =   4

     energy   old            =    -172.4619171009 Ry
     energy   new            =    -172.4657184108 Ry

     CASE: energy  _new < energy  _old

     new trust radius        =       0.0644226240 bohr
     new conv_thr            =       0.0000000100 Ry


ATOMIC_POSITIONS (crystal)
H        0.624027094   0.819222744   0.845827575
H        0.492197047   0.881653263   0.547789769
H        0.829520575   0.473769933   0.664979414
H        0.855243713   0.513179032   0.196204910
H        0.422319980   0.271053060   0.850239749
H        0.584174863   0.130334949   0.571211656
H        0.153062371   0.108337141   0.479381506
C        0.630576074   0.517693048   0.584272916
C        0.659496736   0.554525757   0.293460209
C        0.453614940   0.286956518   0.634652192
N        0.512820859   0.748653431   0.693243213
O        0.469766180   0.632105141   0.171786779
O        0.211010568   0.291907984   0.495451112



     Writing output data file aiida.save
     NEW-OLD atomic charge density approx. for the potential

     total cpu time spent up to now is     2237.8 secs

     per-process dynamical memory:    97.9 Mb

     Self-consistent Calculation

     iteration #  1     ecut=   100.00 Ry     beta=0.40
     Davidson diagonalization with overlap
     ethr =  1.00E-06,  avg # of iterations =  6.3

     total cpu time spent up to now is     2323.9 secs

     total energy              =    -172.46835385 Ry
     Harris-Foulkes estimate   =    -172.47026025 Ry
     estimated scf accuracy    <       0.00110046 Ry

     iteration #  2     ecut=   100.00 Ry     beta=0.40
     Davidson diagonalization with overlap
     ethr =  3.06E-06,  avg # of iterations =  2.0

     total cpu time spent up to now is     2356.0 secs

     total energy              =    -172.46839413 Ry
     Harris-Foulkes estimate   =    -172.46843210 Ry
     estimated scf accuracy    <       0.00022671 Ry

     iteration #  3     ecut=   100.00 Ry     beta=0.40
     Davidson diagonalization with overlap
     ethr =  6.30E-07,  avg # of iterations =  2.5

     total cpu time spent up to now is     2392.4 secs

     total energy              =    -172.46841874 Ry
     Harris-Foulkes estimate   =    -172.46842132 Ry
     estimated scf accuracy    <       0.00003206 Ry

     iteration #  4     ecut=   100.00 Ry     beta=0.40
     Davidson diagonalization with overlap
     ethr =  8.91E-08,  avg # of iterations =  2.3

     total cpu time spent up to now is     2433.3 secs

     total energy              =    -172.46842291 Ry
     Harris-Foulkes estimate   =    -172.46842263 Ry
     estimated scf accuracy    <       0.00000287 Ry

     iteration #  5     ecut=   100.00 Ry     beta=0.40
     Davidson diagonalization with overlap
     ethr =  7.98E-09,  avg # of iterations =  3.9

     total cpu time spent up to now is     2475.4 secs

     total energy              =    -172.46842342 Ry
     Harris-Foulkes estimate   =    -172.46842351 Ry
     estimated scf accuracy    <       0.00000039 Ry

     iteration #  6     ecut=   100.00 Ry     beta=0.40
     Davidson diagonalization with overlap
     ethr =  1.07E-09,  avg # of iterations =  3.2

     total cpu time spent up to now is     2520.3 secs

     total energy              =    -172.46842349 Ry
     Harris-Foulkes estimate   =    -172.46842351 Ry
     estimated scf accuracy    <       0.00000006 Ry

     iteration #  7     ecut=   100.00 Ry     beta=0.40
     Davidson diagonalization with overlap
     ethr =  1.76E-10,  avg # of iterations =  3.0

     total cpu time spent up to now is     2563.0 secs

     End of self-consistent calculation

     Number of k-points >= 100: set verbosity='high' to print the bands.

     highest occupied level (ev):     0.5189

!    total energy              =    -172.46842351 Ry
     Harris-Foulkes estimate   =    -172.46842351 Ry
     estimated scf accuracy    <          8.1E-09 Ry

     total all-electron energy =      -644.844688 Ry

     The total energy is the sum of the following terms:

     one-electron contribution =    -125.79868881 Ry
     hartree contribution      =      75.62883317 Ry
     xc contribution           =     -38.78278308 Ry
     ewald contribution        =     -39.71092687 Ry
     one-center paw contrib.   =     -43.80485791 Ry

     convergence has been achieved in   7 iterations

     Forces acting on atoms (Ry/au):

     atom    1 type  2   force =    -0.01396113    0.00860839   -0.00858067
     atom    2 type  2   force =    -0.00462737    0.00008085   -0.00862964
     atom    3 type  2   force =    -0.00873983   -0.00414021    0.00364815
     atom    4 type  2   force =    -0.00473678   -0.00488043    0.00275596
     atom    5 type  2   force =    -0.00046726   -0.00113541   -0.00373271
     atom    6 type  2   force =     0.00292525   -0.01209951   -0.00606227
     atom    7 type  2   force =     0.00270931    0.00750453    0.00290226
     atom    8 type  1   force =     0.00774962   -0.00331304    0.00966474
     atom    9 type  1   force =     0.01226705   -0.00537976    0.01252765
     atom   10 type  1   force =     0.01235865   -0.00133866    0.00433426
     atom   11 type  3   force =     0.00079979    0.01422361    0.00068001
     atom   12 type  4   force =    -0.01074766    0.01313687   -0.01126634
     atom   13 type  4   force =     0.00447035   -0.01126726    0.00175859

     Total force =     0.048177     Total SCF correction =     0.000188

     number of scf cycles    =   6
     number of bfgs steps    =   5

     energy   old            =    -172.4657184108 Ry
     energy   new            =    -172.4684235059 Ry

     CASE: energy  _new < energy  _old

     new trust radius        =       0.0618267174 bohr
     new conv_thr            =       0.0000000100 Ry


ATOMIC_POSITIONS (crystal)
H        0.620382113   0.822345405   0.844348267
H        0.489436336   0.879899588   0.542226875
H        0.829412019   0.469716424   0.666115594
H        0.854684254   0.511458140   0.197641320
H        0.422907434   0.270947687   0.850192892
H        0.587774151   0.131360759   0.569078409
H        0.154252040   0.108889028   0.480608226
C        0.631226018   0.517566623   0.586312744
C        0.659063610   0.553808372   0.296131179
C        0.455346717   0.286869216   0.634463359
N        0.511296815   0.751010294   0.690580744
O        0.469603067   0.633966247   0.175277160
O        0.212446425   0.291554217   0.495524231



     Writing output data file aiida.save
     NEW-OLD atomic charge density approx. for the potential

     total cpu time spent up to now is     2573.0 secs

     per-process dynamical memory:    97.9 Mb

     Self-consistent Calculation

     iteration #  1     ecut=   100.00 Ry     beta=0.40
     Davidson diagonalization with overlap
     ethr =  1.00E-06,  avg # of iterations =  6.1

     total cpu time spent up to now is     2661.3 secs

     total energy              =    -172.47059200 Ry
     Harris-Foulkes estimate   =    -172.47265344 Ry
     estimated scf accuracy    <       0.00093790 Ry

     iteration #  2     ecut=   100.00 Ry     beta=0.40
     Davidson diagonalization with overlap
     ethr =  2.61E-06,  avg # of iterations =  1.6

     total cpu time spent up to now is     2693.3 secs

     total energy              =    -172.47059620 Ry
     Harris-Foulkes estimate   =    -172.47063840 Ry
     estimated scf accuracy    <       0.00021958 Ry

     iteration #  3     ecut=   100.00 Ry     beta=0.40
     Davidson diagonalization with overlap
     ethr =  6.10E-07,  avg # of iterations =  2.4

     total cpu time spent up to now is     2730.6 secs

     total energy              =    -172.47062426 Ry
     Harris-Foulkes estimate   =    -172.47062589 Ry
     estimated scf accuracy    <       0.00001916 Ry

     iteration #  4     ecut=   100.00 Ry     beta=0.40
     Davidson diagonalization with overlap
     ethr =  5.32E-08,  avg # of iterations =  2.0

     total cpu time spent up to now is     2769.3 secs

     total energy              =    -172.47062745 Ry
     Harris-Foulkes estimate   =    -172.47062705 Ry
     estimated scf accuracy    <       0.00000297 Ry

     iteration #  5     ecut=   100.00 Ry     beta=0.40
     Davidson diagonalization with overlap
     ethr =  8.26E-09,  avg # of iterations =  2.0

     total cpu time spent up to now is     2801.1 secs

     total energy              =    -172.47062770 Ry
     Harris-Foulkes estimate   =    -172.47062770 Ry
     estimated scf accuracy    <       0.00000025 Ry

     iteration #  6     ecut=   100.00 Ry     beta=0.40
     Davidson diagonalization with overlap
     ethr =  6.92E-10,  avg # of iterations =  3.5

     total cpu time spent up to now is     2846.5 secs

     total energy              =    -172.47062775 Ry
     Harris-Foulkes estimate   =    -172.47062777 Ry
     estimated scf accuracy    <       0.00000005 Ry

     iteration #  7     ecut=   100.00 Ry     beta=0.40
     Davidson diagonalization with overlap
     ethr =  1.43E-10,  avg # of iterations =  3.2

     total cpu time spent up to now is     2895.6 secs

     total energy              =    -172.47062777 Ry
     Harris-Foulkes estimate   =    -172.47062777 Ry
     estimated scf accuracy    <       0.00000003 Ry

     iteration #  8     ecut=   100.00 Ry     beta=0.40
     Davidson diagonalization with overlap
     ethr =  7.45E-11,  avg # of iterations =  2.3

     total cpu time spent up to now is     2935.2 secs

     End of self-consistent calculation

     Number of k-points >= 100: set verbosity='high' to print the bands.

     highest occupied level (ev):     0.4870

!    total energy              =    -172.47062777 Ry
     Harris-Foulkes estimate   =    -172.47062777 Ry
     estimated scf accuracy    <          2.6E-09 Ry

     total all-electron energy =      -644.846892 Ry

     The total energy is the sum of the following terms:

     one-electron contribution =    -126.04087422 Ry
     hartree contribution      =      75.73928153 Ry
     xc contribution           =     -38.78052411 Ry
     ewald contribution        =     -39.58414208 Ry
     one-center paw contrib.   =     -43.80436889 Ry

     convergence has been achieved in   8 iterations

     Forces acting on atoms (Ry/au):

     atom    1 type  2   force =    -0.01471370    0.01043274   -0.00933239
     atom    2 type  2   force =    -0.00313426    0.00406914   -0.00967313
     atom    3 type  2   force =    -0.00711842    0.00247240    0.00633950
     atom    4 type  2   force =    -0.00809468   -0.00509651    0.00394136
     atom    5 type  2   force =     0.00091972   -0.00332339   -0.00525629
     atom    6 type  2   force =    -0.00165441   -0.01064309   -0.00271644
     atom    7 type  2   force =     0.00031289   -0.00019550    0.00235595
     atom    8 type  1   force =     0.00078689    0.00502542    0.00577556
     atom    9 type  1   force =     0.01689318   -0.00363442    0.00343504
     atom   10 type  1   force =     0.00951819   -0.00639343    0.00778444
     atom   11 type  3   force =     0.00655733   -0.00186442    0.00975186
     atom   12 type  4   force =    -0.00760965    0.01289922   -0.01430523
     atom   13 type  4   force =     0.00733691   -0.00374816    0.00189977

     Total force =     0.045920     Total SCF correction =     0.000100

     number of scf cycles    =   7
     number of bfgs steps    =   6

     energy   old            =    -172.4684235059 Ry
     energy   new            =    -172.4706277673 Ry

     CASE: energy  _new < energy  _old

     new trust radius        =       0.0972700547 bohr
     new conv_thr            =       0.0000000100 Ry


ATOMIC_POSITIONS (crystal)
H        0.613675727   0.828795991   0.841734720
H        0.485201392   0.878419335   0.533119349
H        0.828611718   0.464485009   0.669052889
H        0.852622637   0.508261824   0.200175143
H        0.423729871   0.270287358   0.849470694
H        0.592199649   0.130538116   0.565745991
H        0.155702883   0.108761082   0.482613200
C        0.631467287   0.518902632   0.589744729
C        0.659221420   0.553026901   0.299190146
C        0.459203980   0.285100215   0.635052813
N        0.509789181   0.753514821   0.687422237
O        0.470128550   0.637898379   0.178897593
O        0.216276707   0.291400338   0.496281496



     Writing output data file aiida.save
     NEW-OLD atomic charge density approx. for the potential

     total cpu time spent up to now is     2944.7 secs

     per-process dynamical memory:    97.9 Mb

     Self-consistent Calculation

     iteration #  1     ecut=   100.00 Ry     beta=0.40
     Davidson diagonalization with overlap
     ethr =  1.00E-06,  avg # of iterations =  7.0

     total cpu time spent up to now is     3039.3 secs

     total energy              =    -172.47314911 Ry
     Harris-Foulkes estimate   =    -172.47535901 Ry
     estimated scf accuracy    <       0.00218277 Ry

     iteration #  2     ecut=   100.00 Ry     beta=0.40
     Davidson diagonalization with overlap
     ethr =  6.06E-06,  avg # of iterations =  1.0

     total cpu time spent up to now is     3069.1 secs

     total energy              =    -172.47312351 Ry
     Harris-Foulkes estimate   =    -172.47323714 Ry
     estimated scf accuracy    <       0.00053473 Ry

     iteration #  3     ecut=   100.00 Ry     beta=0.40
     Davidson diagonalization with overlap
     ethr =  1.49E-06,  avg # of iterations =  2.8

     total cpu time spent up to now is     3106.1 secs

     total energy              =    -172.47319338 Ry
     Harris-Foulkes estimate   =    -172.47319838 Ry
     estimated scf accuracy    <       0.00003861 Ry

     iteration #  4     ecut=   100.00 Ry     beta=0.40
     Davidson diagonalization with overlap
     ethr =  1.07E-07,  avg # of iterations =  2.0

     total cpu time spent up to now is     3148.3 secs

     total energy              =    -172.47320112 Ry
     Harris-Foulkes estimate   =    -172.47320036 Ry
     estimated scf accuracy    <       0.00000678 Ry

     iteration #  5     ecut=   100.00 Ry     beta=0.40
     Davidson diagonalization with overlap
     ethr =  1.88E-08,  avg # of iterations =  2.0

     total cpu time spent up to now is     3184.6 secs

     total energy              =    -172.47320181 Ry
     Harris-Foulkes estimate   =    -172.47320175 Ry
     estimated scf accuracy    <       0.00000073 Ry

     iteration #  6     ecut=   100.00 Ry     beta=0.40
     Davidson diagonalization with overlap
     ethr =  2.02E-09,  avg # of iterations =  3.3

     total cpu time spent up to now is     3229.4 secs

     total energy              =    -172.47320195 Ry
     Harris-Foulkes estimate   =    -172.47320198 Ry
     estimated scf accuracy    <       0.00000013 Ry

     iteration #  7     ecut=   100.00 Ry     beta=0.40
     Davidson diagonalization with overlap
     ethr =  3.69E-10,  avg # of iterations =  3.0

     total cpu time spent up to now is     3277.2 secs

     total energy              =    -172.47320197 Ry
     Harris-Foulkes estimate   =    -172.47320199 Ry
     estimated scf accuracy    <       0.00000005 Ry

     iteration #  8     ecut=   100.00 Ry     beta=0.40
     Davidson diagonalization with overlap
     ethr =  1.28E-10,  avg # of iterations =  2.1

     total cpu time spent up to now is     3314.7 secs

     End of self-consistent calculation

     Number of k-points >= 100: set verbosity='high' to print the bands.

     highest occupied level (ev):     0.4766

!    total energy              =    -172.47320198 Ry
     Harris-Foulkes estimate   =    -172.47320198 Ry
     estimated scf accuracy    <          3.4E-09 Ry

     total all-electron energy =      -644.849466 Ry

     The total energy is the sum of the following terms:

     one-electron contribution =    -126.27809558 Ry
     hartree contribution      =      75.85747822 Ry
     xc contribution           =     -38.76951000 Ry
     ewald contribution        =     -39.47883110 Ry
     one-center paw contrib.   =     -43.80424352 Ry

     convergence has been achieved in   8 iterations

     Forces acting on atoms (Ry/au):

     atom    1 type  2   force =    -0.01073884    0.01240106   -0.00485014
     atom    2 type  2   force =    -0.00027923   -0.00846803    0.00711325
     atom    3 type  2   force =    -0.00605817    0.01332153    0.00766476
     atom    4 type  2   force =    -0.00424307   -0.00771901    0.00113995
     atom    5 type  2   force =     0.00360149   -0.00793134    0.00073825
     atom    6 type  2   force =    -0.00370262   -0.00579237    0.00259842
     atom    7 type  2   force =     0.00189606    0.00492257    0.00300065
     atom    8 type  1   force =     0.00383894   -0.00229456   -0.00381206
     atom    9 type  1   force =     0.00448157    0.00372512   -0.00259395
     atom   10 type  1   force =     0.00346415   -0.00026245    0.00231575
     atom   11 type  3   force =     0.00017412    0.00081752   -0.00046671
     atom   12 type  4   force =     0.00558707    0.00821778   -0.01188458
     atom   13 type  4   force =     0.00197853   -0.01093782   -0.00096360

     Total force =     0.037311     Total SCF correction =     0.000097

     number of scf cycles    =   8
     number of bfgs steps    =   7

     energy   old            =    -172.4706277673 Ry
     energy   new            =    -172.4732019808 Ry

     CASE: energy  _new < energy  _old

     new trust radius        =       0.0680019282 bohr
     new conv_thr            =       0.0000000100 Ry


ATOMIC_POSITIONS (crystal)
H        0.609100269   0.833989111   0.840162056
H        0.483197318   0.877224454   0.529723839
H        0.827386066   0.463769621   0.671846327
H        0.851033384   0.505608359   0.201353188
H        0.424310049   0.268920351   0.849312270
H        0.593438426   0.127963184   0.564336666
H        0.156547279   0.109291108   0.483967739
C        0.631796124   0.519431248   0.590856241
C        0.659177529   0.553353900   0.300542634
C        0.462206717   0.283846072   0.635352434
N        0.508975100   0.755230066   0.685525634
O        0.471712856   0.641019858   0.178605719
O        0.218949884   0.289744667   0.496916253



     Writing output data file aiida.save
     NEW-OLD atomic charge density approx. for the potential

     total cpu time spent up to now is     3324.4 secs

     per-process dynamical memory:    97.9 Mb

     Self-consistent Calculation

     iteration #  1     ecut=   100.00 Ry     beta=0.40
     Davidson diagonalization with overlap
     ethr =  1.00E-06,  avg # of iterations =  5.4

     total cpu time spent up to now is     3408.2 secs

     total energy              =    -172.47492940 Ry
     Harris-Foulkes estimate   =    -172.47779031 Ry
     estimated scf accuracy    <       0.00103347 Ry

     iteration #  2     ecut=   100.00 Ry     beta=0.40
     Davidson diagonalization with overlap
     ethr =  2.87E-06,  avg # of iterations =  2.0

     total cpu time spent up to now is     3442.6 secs

     total energy              =    -172.47496496 Ry
     Harris-Foulkes estimate   =    -172.47501091 Ry
     estimated scf accuracy    <       0.00021241 Ry

     iteration #  3     ecut=   100.00 Ry     beta=0.40
     Davidson diagonalization with overlap
     ethr =  5.90E-07,  avg # of iterations =  2.0

     total cpu time spent up to now is     3476.7 secs

     total energy              =    -172.47498846 Ry
     Harris-Foulkes estimate   =    -172.47498927 Ry
     estimated scf accuracy    <       0.00002823 Ry

     iteration #  4     ecut=   100.00 Ry     beta=0.40
     Davidson diagonalization with overlap
     ethr =  7.84E-08,  avg # of iterations =  2.0

     total cpu time spent up to now is     3509.5 secs

     total energy              =    -172.47499173 Ry
     Harris-Foulkes estimate   =    -172.47499131 Ry
     estimated scf accuracy    <       0.00000375 Ry

     iteration #  5     ecut=   100.00 Ry     beta=0.40
     Davidson diagonalization with overlap
     ethr =  1.04E-08,  avg # of iterations =  2.5

     total cpu time spent up to now is     3551.5 secs

     total energy              =    -172.47499234 Ry
     Harris-Foulkes estimate   =    -172.47499243 Ry
     estimated scf accuracy    <       0.00000043 Ry

     iteration #  6     ecut=   100.00 Ry     beta=0.40
     Davidson diagonalization with overlap
     ethr =  1.18E-09,  avg # of iterations =  3.0

     total cpu time spent up to now is     3595.1 secs

     total energy              =    -172.47499244 Ry
     Harris-Foulkes estimate   =    -172.47499243 Ry
     estimated scf accuracy    <       0.00000005 Ry

     iteration #  7     ecut=   100.00 Ry     beta=0.40
     Davidson diagonalization with overlap
     ethr =  1.48E-10,  avg # of iterations =  2.2

     total cpu time spent up to now is     3629.2 secs

     End of self-consistent calculation

     Number of k-points >= 100: set verbosity='high' to print the bands.

     highest occupied level (ev):     0.4549

!    total energy              =    -172.47499245 Ry
     Harris-Foulkes estimate   =    -172.47499245 Ry
     estimated scf accuracy    <          6.1E-09 Ry

     total all-electron energy =      -644.851257 Ry

     The total energy is the sum of the following terms:

     one-electron contribution =    -126.37566616 Ry
     hartree contribution      =      75.89601427 Ry
     xc contribution           =     -38.77713667 Ry
     ewald contribution        =     -39.41468952 Ry
     one-center paw contrib.   =     -43.80351437 Ry

     convergence has been achieved in   7 iterations

     Forces acting on atoms (Ry/au):

     atom    1 type  2   force =    -0.00855506    0.01015029   -0.00338977
     atom    2 type  2   force =    -0.00165487   -0.00715925    0.00381365
     atom    3 type  2   force =    -0.00179765    0.01638670    0.00691137
     atom    4 type  2   force =    -0.00142913   -0.00862429    0.00037090
     atom    5 type  2   force =     0.00638804   -0.00878707    0.00177755
     atom    6 type  2   force =    -0.00193420    0.00055723    0.00556836
     atom    7 type  2   force =    -0.00119451   -0.00857838    0.00281820
     atom    8 type  1   force =    -0.00003121    0.00114309   -0.00410968
     atom    9 type  1   force =     0.00131815    0.00482464   -0.01011559
     atom   10 type  1   force =    -0.00457685   -0.00109445    0.00093113
     atom   11 type  3   force =    -0.00132956   -0.00880500    0.00311981
     atom   12 type  4   force =     0.01111194    0.00545564   -0.00539981
     atom   13 type  4   force =     0.00368492    0.00453086   -0.00229613

     Total force =     0.037025     Total SCF correction =     0.000114

     number of scf cycles    =   9
     number of bfgs steps    =   8

     energy   old            =    -172.4732019808 Ry
     energy   new            =    -172.4749924460 Ry

     CASE: energy  _new < energy  _old

     new trust radius        =       0.1209167546 bohr
     new conv_thr            =       0.0000000100 Ry


ATOMIC_POSITIONS (crystal)
H        0.600894170   0.843100757   0.837175896
H        0.479842536   0.874519877   0.524994051
H        0.825256514   0.465167087   0.676945604
H        0.848611028   0.500294248   0.203083527
H        0.426184412   0.265578920   0.849337735
H        0.595143444   0.124160078   0.563057472
H        0.157538556   0.108463447   0.486425998
C        0.632390068   0.520268853   0.592159857
C        0.659682425   0.554301232   0.301404872
C        0.465944543   0.281932071   0.635895082
N        0.507510378   0.756574259   0.683430192
O        0.475304098   0.646730212   0.177110567
O        0.223528829   0.288300961   0.497480148



     Writing output data file aiida.save
     NEW-OLD atomic charge density approx. for the potential

     total cpu time spent up to now is     3638.8 secs

     per-process dynamical memory:    97.9 Mb

     Self-consistent Calculation

     iteration #  1     ecut=   100.00 Ry     beta=0.40
     Davidson diagonalization with overlap
     ethr =  1.00E-06,  avg # of iterations =  6.4

     total cpu time spent up to now is     3733.1 secs

     total energy              =    -172.47760258 Ry
     Harris-Foulkes estimate   =    -172.47898717 Ry
     estimated scf accuracy    <       0.00247909 Ry

     iteration #  2     ecut=   100.00 Ry     beta=0.40
     Davidson diagonalization with overlap
     ethr =  6.89E-06,  avg # of iterations =  1.0

     total cpu time spent up to now is     3764.3 secs

     total energy              =    -172.47757602 Ry
     Harris-Foulkes estimate   =    -172.47772194 Ry
     estimated scf accuracy    <       0.00057484 Ry

     iteration #  3     ecut=   100.00 Ry     beta=0.40
     Davidson diagonalization with overlap
     ethr =  1.60E-06,  avg # of iterations =  2.7

     total cpu time spent up to now is     3801.6 secs

     total energy              =    -172.47765734 Ry
     Harris-Foulkes estimate   =    -172.47766683 Ry
     estimated scf accuracy    <       0.00005032 Ry

     iteration #  4     ecut=   100.00 Ry     beta=0.40
     Davidson diagonalization with overlap
     ethr =  1.40E-07,  avg # of iterations =  2.0

     total cpu time spent up to now is     3841.7 secs

     total energy              =    -172.47766632 Ry
     Harris-Foulkes estimate   =    -172.47766541 Ry
     estimated scf accuracy    <       0.00000928 Ry

     iteration #  5     ecut=   100.00 Ry     beta=0.40
     Davidson diagonalization with overlap
     ethr =  2.58E-08,  avg # of iterations =  1.8

     total cpu time spent up to now is     3871.9 secs

     total energy              =    -172.47766699 Ry
     Harris-Foulkes estimate   =    -172.47766703 Ry
     estimated scf accuracy    <       0.00000094 Ry

     iteration #  6     ecut=   100.00 Ry     beta=0.40
     Davidson diagonalization with overlap
     ethr =  2.62E-09,  avg # of iterations =  3.3

     total cpu time spent up to now is     3918.2 secs

     total energy              =    -172.47766720 Ry
     Harris-Foulkes estimate   =    -172.47766729 Ry
     estimated scf accuracy    <       0.00000022 Ry

     iteration #  7     ecut=   100.00 Ry     beta=0.40
     Davidson diagonalization with overlap
     ethr =  6.16E-10,  avg # of iterations =  3.7

     total cpu time spent up to now is     3964.6 secs

     total energy              =    -172.47766725 Ry
     Harris-Foulkes estimate   =    -172.47766726 Ry
     estimated scf accuracy    <       0.00000005 Ry

     iteration #  8     ecut=   100.00 Ry     beta=0.40
     Davidson diagonalization with overlap
     ethr =  1.45E-10,  avg # of iterations =  3.4

     total cpu time spent up to now is     4004.2 secs

     End of self-consistent calculation

     Number of k-points >= 100: set verbosity='high' to print the bands.

     highest occupied level (ev):     0.4528

!    total energy              =    -172.47766726 Ry
     Harris-Foulkes estimate   =    -172.47766726 Ry
     estimated scf accuracy    <          3.5E-09 Ry

     total all-electron energy =      -644.853932 Ry

     The total energy is the sum of the following terms:

     one-electron contribution =    -126.42046332 Ry
     hartree contribution      =      75.90945727 Ry
     xc contribution           =     -38.77935246 Ry
     ewald contribution        =     -39.38428412 Ry
     one-center paw contrib.   =     -43.80302462 Ry

     convergence has been achieved in   8 iterations

     Forces acting on atoms (Ry/au):

     atom    1 type  2   force =    -0.00300291    0.00487495    0.00094771
     atom    2 type  2   force =    -0.00430282   -0.00719082    0.00189238
     atom    3 type  2   force =     0.00633043    0.01748502    0.00521294
     atom    4 type  2   force =     0.00497231   -0.01021421   -0.00294598
     atom    5 type  2   force =     0.00863433   -0.00832491    0.00341880
     atom    6 type  2   force =     0.00007781    0.00903310    0.00852266
     atom    7 type  2   force =     0.00136034   -0.00410504    0.00381401
     atom    8 type  1   force =    -0.00690192    0.00562995   -0.00366479
     atom    9 type  1   force =    -0.00470766    0.00415604   -0.01272776
     atom   10 type  1   force =    -0.00657428   -0.00128676   -0.00201818
     atom   11 type  3   force =    -0.00827176   -0.01379422   -0.00013202
     atom   12 type  4   force =     0.01767747    0.00223791    0.00425937
     atom   13 type  4   force =    -0.00529135    0.00149900   -0.00657913

     Total force =     0.044410     Total SCF correction =     0.000085

     number of scf cycles    =  10
     number of bfgs steps    =   9

     energy   old            =    -172.4749924460 Ry
     energy   new            =    -172.4776672583 Ry

     CASE: energy  _new < energy  _old

     new trust radius        =       0.1699867032 bohr
     new conv_thr            =       0.0000000100 Ry


ATOMIC_POSITIONS (crystal)
H        0.589209652   0.855774047   0.832975140
H        0.474521775   0.869374009   0.518791576
H        0.823314019   0.469450633   0.684325429
H        0.846197573   0.491590681   0.205002096
H        0.430114239   0.259888218   0.849778228
H        0.597764255   0.121153521   0.562569696
H        0.159453563   0.107839518   0.490401480
C        0.632359610   0.522018131   0.593616466
C        0.660960936   0.555555414   0.301645402
C        0.470181031   0.279571366   0.636532050
N        0.504249122   0.756513292   0.680615503
O        0.481436029   0.655176126   0.175362141
O        0.228069197   0.285487045   0.496885792



     Writing output data file aiida.save
     NEW-OLD atomic charge density approx. for the potential

     total cpu time spent up to now is     4013.5 secs

     per-process dynamical memory:    97.9 Mb

     Self-consistent Calculation

     iteration #  1     ecut=   100.00 Ry     beta=0.40
     Davidson diagonalization with overlap
     ethr =  1.00E-06,  avg # of iterations =  7.2

     total cpu time spent up to now is     4111.0 secs

     total energy              =    -172.48083189 Ry
     Harris-Foulkes estimate   =    -172.48166509 Ry
     estimated scf accuracy    <       0.00514012 Ry

     iteration #  2     ecut=   100.00 Ry     beta=0.40
     Davidson diagonalization with overlap
     ethr =  1.43E-05,  avg # of iterations =  1.8

     total cpu time spent up to now is     4140.9 secs

     total energy              =    -172.48079280 Ry
     Harris-Foulkes estimate   =    -172.48112245 Ry
     estimated scf accuracy    <       0.00116774 Ry

     iteration #  3     ecut=   100.00 Ry     beta=0.40
     Davidson diagonalization with overlap
     ethr =  3.24E-06,  avg # of iterations =  2.4

     total cpu time spent up to now is     4177.9 secs

     total energy              =    -172.48093674 Ry
     Harris-Foulkes estimate   =    -172.48094999 Ry
     estimated scf accuracy    <       0.00010572 Ry

     iteration #  4     ecut=   100.00 Ry     beta=0.40
     Davidson diagonalization with overlap
     ethr =  2.94E-07,  avg # of iterations =  2.3

     total cpu time spent up to now is     4216.9 secs

     total energy              =    -172.48095301 Ry
     Harris-Foulkes estimate   =    -172.48095478 Ry
     estimated scf accuracy    <       0.00002317 Ry

     iteration #  5     ecut=   100.00 Ry     beta=0.40
     Davidson diagonalization with overlap
     ethr =  6.44E-08,  avg # of iterations =  2.0

     total cpu time spent up to now is     4256.2 secs

     total energy              =    -172.48095579 Ry
     Harris-Foulkes estimate   =    -172.48095647 Ry
     estimated scf accuracy    <       0.00000247 Ry

     iteration #  6     ecut=   100.00 Ry     beta=0.40
     Davidson diagonalization with overlap
     ethr =  6.85E-09,  avg # of iterations =  3.3

     total cpu time spent up to now is     4301.7 secs

     total energy              =    -172.48095641 Ry
     Harris-Foulkes estimate   =    -172.48095678 Ry
     estimated scf accuracy    <       0.00000086 Ry

     iteration #  7     ecut=   100.00 Ry     beta=0.40
     Davidson diagonalization with overlap
     ethr =  2.40E-09,  avg # of iterations =  2.2

     total cpu time spent up to now is     4346.3 secs

     total energy              =    -172.48095656 Ry
     Harris-Foulkes estimate   =    -172.48095656 Ry
     estimated scf accuracy    <       0.00000004 Ry

     iteration #  8     ecut=   100.00 Ry     beta=0.40
     Davidson diagonalization with overlap
     ethr =  1.08E-10,  avg # of iterations =  4.3

     total cpu time spent up to now is     4398.6 secs

     End of self-consistent calculation

     Number of k-points >= 100: set verbosity='high' to print the bands.

     highest occupied level (ev):     0.4694

!    total energy              =    -172.48095658 Ry
     Harris-Foulkes estimate   =    -172.48095658 Ry
     estimated scf accuracy    <          6.4E-09 Ry

     total all-electron energy =      -644.857221 Ry

     The total energy is the sum of the following terms:

     one-electron contribution =    -126.35629686 Ry
     hartree contribution      =      75.86147443 Ry
     xc contribution           =     -38.77841827 Ry
     ewald contribution        =     -39.40561523 Ry
     one-center paw contrib.   =     -43.80210064 Ry

     convergence has been achieved in   8 iterations

     Forces acting on atoms (Ry/au):

     atom    1 type  2   force =    -0.00276412   -0.01154127   -0.00530320
     atom    2 type  2   force =    -0.00811398   -0.00550803   -0.00012460
     atom    3 type  2   force =     0.00841006    0.01809750   -0.00026144
     atom    4 type  2   force =     0.00970609   -0.01181135   -0.00636567
     atom    5 type  2   force =     0.00824877   -0.00559289    0.00316567
     atom    6 type  2   force =     0.00415210    0.01146455    0.00784001
     atom    7 type  2   force =    -0.00301500   -0.01611699    0.00362237
     atom    8 type  1   force =    -0.00382497    0.00190882   -0.00138315
     atom    9 type  1   force =    -0.00780352    0.00050234   -0.00926964
     atom   10 type  1   force =    -0.01102930    0.00255758   -0.00640926
     atom   11 type  3   force =    -0.01481815    0.00132386    0.00853564
     atom   12 type  4   force =     0.02218072    0.00037394    0.01102382
     atom   13 type  4   force =    -0.00132871    0.01434195   -0.00507056

     Total force =     0.054924     Total SCF correction =     0.000087

     number of scf cycles    =  11
     number of bfgs steps    =  10

     energy   old            =    -172.4776672583 Ry
     energy   new            =    -172.4809565766 Ry

     CASE: energy  _new < energy  _old

     new trust radius        =       0.2152000260 bohr
     new conv_thr            =       0.0000000100 Ry


ATOMIC_POSITIONS (crystal)
H        0.573328033   0.870110821   0.826138291
H        0.466517947   0.861233202   0.511235096
H        0.821541585   0.477732412   0.693560977
H        0.844293966   0.478641806   0.206674182
H        0.436412762   0.251680513   0.850686689
H        0.601895277   0.119366973   0.563009509
H        0.161512281   0.105031658   0.496063444
C        0.632462751   0.523895146   0.595283060
C        0.663228536   0.556637053   0.301775943
C        0.474035702   0.277546142   0.636651346
N        0.498044802   0.757332731   0.678485193
O        0.490957660   0.666701631   0.173635873
O        0.233599699   0.283481912   0.495301398



     Writing output data file aiida.save
     NEW-OLD atomic charge density approx. for the potential

     total cpu time spent up to now is     4408.2 secs

     per-process dynamical memory:    97.9 Mb

     Self-consistent Calculation

     iteration #  1     ecut=   100.00 Ry     beta=0.40
     Davidson diagonalization with overlap
     ethr =  1.00E-06,  avg # of iterations =  7.7

     total cpu time spent up to now is     4516.1 secs

     total energy              =    -172.48495827 Ry
     Harris-Foulkes estimate   =    -172.48310312 Ry
     estimated scf accuracy    <       0.00949596 Ry

     iteration #  2     ecut=   100.00 Ry     beta=0.40
     Davidson diagonalization with overlap
     ethr =  2.64E-05,  avg # of iterations =  2.0

     total cpu time spent up to now is     4551.5 secs

     total energy              =    -172.48490294 Ry
     Harris-Foulkes estimate   =    -172.48564255 Ry
     estimated scf accuracy    <       0.00220951 Ry

     iteration #  3     ecut=   100.00 Ry     beta=0.40
     Davidson diagonalization with overlap
     ethr =  6.14E-06,  avg # of iterations =  2.0

     total cpu time spent up to now is     4589.1 secs

     total energy              =    -172.48506177 Ry
     Harris-Foulkes estimate   =    -172.48512825 Ry
     estimated scf accuracy    <       0.00027038 Ry

     iteration #  4     ecut=   100.00 Ry     beta=0.40
     Davidson diagonalization with overlap
     ethr =  7.51E-07,  avg # of iterations =  3.0

     total cpu time spent up to now is     4629.8 secs

     total energy              =    -172.48510656 Ry
     Harris-Foulkes estimate   =    -172.48511420 Ry
     estimated scf accuracy    <       0.00004038 Ry

     iteration #  5     ecut=   100.00 Ry     beta=0.40
     Davidson diagonalization with overlap
     ethr =  1.12E-07,  avg # of iterations =  2.0

     total cpu time spent up to now is     4670.4 secs

     total energy              =    -172.48511272 Ry
     Harris-Foulkes estimate   =    -172.48511285 Ry
     estimated scf accuracy    <       0.00000408 Ry

     iteration #  6     ecut=   100.00 Ry     beta=0.40
     Davidson diagonalization with overlap
     ethr =  1.13E-08,  avg # of iterations =  2.2

     total cpu time spent up to now is     4711.8 secs

     total energy              =    -172.48511334 Ry
     Harris-Foulkes estimate   =    -172.48511335 Ry
     estimated scf accuracy    <       0.00000059 Ry

     iteration #  7     ecut=   100.00 Ry     beta=0.40
     Davidson diagonalization with overlap
     ethr =  1.64E-09,  avg # of iterations =  2.5

     total cpu time spent up to now is     4750.9 secs

     total energy              =    -172.48511342 Ry
     Harris-Foulkes estimate   =    -172.48511343 Ry
     estimated scf accuracy    <       0.00000007 Ry

     iteration #  8     ecut=   100.00 Ry     beta=0.40
     Davidson diagonalization with overlap
     ethr =  1.81E-10,  avg # of iterations =  3.1

     total cpu time spent up to now is     4797.0 secs

     total energy              =    -172.48511344 Ry
     Harris-Foulkes estimate   =    -172.48511344 Ry
     estimated scf accuracy    <       0.00000001 Ry

     iteration #  9     ecut=   100.00 Ry     beta=0.40
     Davidson diagonalization with overlap
     ethr =  3.34E-11,  avg # of iterations =  3.0

     total cpu time spent up to now is     4843.4 secs

     End of self-consistent calculation

     Number of k-points >= 100: set verbosity='high' to print the bands.

     highest occupied level (ev):     0.4889

!    total energy              =    -172.48511344 Ry
     Harris-Foulkes estimate   =    -172.48511344 Ry
     estimated scf accuracy    <          1.1E-09 Ry

     total all-electron energy =      -644.861378 Ry

     The total energy is the sum of the following terms:

     one-electron contribution =    -125.92435658 Ry
     hartree contribution      =      75.62883673 Ry
     xc contribution           =     -38.75159738 Ry
     ewald contribution        =     -39.63624590 Ry
     one-center paw contrib.   =     -43.80175032 Ry

     convergence has been achieved in   9 iterations

     Forces acting on atoms (Ry/au):

     atom    1 type  2   force =     0.00427321   -0.02333102   -0.00183121
     atom    2 type  2   force =    -0.01228558    0.00175253   -0.00381313
     atom    3 type  2   force =     0.00846118    0.01582390   -0.00647605
     atom    4 type  2   force =     0.00593433   -0.01088687   -0.00602041
     atom    5 type  2   force =     0.00514807    0.00042314   -0.00174342
     atom    6 type  2   force =     0.00643301    0.01099859    0.00359723
     atom    7 type  2   force =     0.00231609    0.00074417    0.00335531
     atom    8 type  1   force =    -0.00671828    0.01242322    0.00738667
     atom    9 type  1   force =    -0.00471317   -0.00317669   -0.00718283
     atom   10 type  1   force =    -0.00491399    0.00598963   -0.00378256
     atom   11 type  3   force =    -0.02232913   -0.00426140    0.00226660
     atom   12 type  4   force =     0.02844513   -0.00294064    0.01792024
     atom   13 type  4   force =    -0.01005086   -0.00355857   -0.00367646

     Total force =     0.060917     Total SCF correction =     0.000048

     number of scf cycles    =  12
     number of bfgs steps    =  11

     energy   old            =    -172.4809565766 Ry
     energy   new            =    -172.4851134445 Ry

     CASE: energy  _new < energy  _old

     new trust radius        =       0.2116765121 bohr
     new conv_thr            =       0.0000000100 Ry


ATOMIC_POSITIONS (crystal)
H        0.556636329   0.882250285   0.818255009
H        0.456171419   0.851850290   0.503179938
H        0.820566250   0.489803238   0.702468322
H        0.842822740   0.462951881   0.207782853
H        0.444305808   0.242547558   0.851357477
H        0.607306707   0.120045573   0.564327417
H        0.164258304   0.102592818   0.502709109
C        0.631815357   0.527652137   0.597951558
C        0.667163106   0.556877110   0.301413820
C        0.477085261   0.276896573   0.636639024
N        0.488254320   0.756496731   0.676570029
O        0.503977880   0.679271389   0.173177716
O        0.237467519   0.280156416   0.492668729



     Writing output data file aiida.save
     NEW-OLD atomic charge density approx. for the potential

     total cpu time spent up to now is     4853.0 secs

     per-process dynamical memory:    97.9 Mb

     Self-consistent Calculation

     iteration #  1     ecut=   100.00 Ry     beta=0.40
     Davidson diagonalization with overlap
     ethr =  1.00E-06,  avg # of iterations =  8.8

     total cpu time spent up to now is     4965.3 secs

     total energy              =    -172.49037079 Ry
     Harris-Foulkes estimate   =    -172.49080494 Ry
     estimated scf accuracy    <       0.01332666 Ry

     iteration #  2     ecut=   100.00 Ry     beta=0.40
     Davidson diagonalization with overlap
     ethr =  3.70E-05,  avg # of iterations =  2.0

     total cpu time spent up to now is     4998.9 secs

     total energy              =    -172.49037335 Ry
     Harris-Foulkes estimate   =    -172.49154325 Ry
     estimated scf accuracy    <       0.00315879 Ry

     iteration #  3     ecut=   100.00 Ry     beta=0.40
[...]

     total energy              =    -172.56843399 Ry
     Harris-Foulkes estimate   =    -172.56847514 Ry
     estimated scf accuracy    <       0.00125669 Ry

     iteration #  3     ecut=   100.00 Ry     beta=0.40
     Davidson diagonalization with overlap
     ethr =  3.49E-06,  avg # of iterations =  2.0

     total cpu time spent up to now is    18330.8 secs

     total energy              =    -172.56860769 Ry
     Harris-Foulkes estimate   =    -172.56858240 Ry
     estimated scf accuracy    <       0.00011448 Ry

     iteration #  4     ecut=   100.00 Ry     beta=0.40
     Davidson diagonalization with overlap
     ethr =  3.18E-07,  avg # of iterations =  2.1

     total cpu time spent up to now is    18367.1 secs

     total energy              =    -172.56862991 Ry
     Harris-Foulkes estimate   =    -172.56862414 Ry
     estimated scf accuracy    <       0.00002237 Ry

     iteration #  5     ecut=   100.00 Ry     beta=0.40
     Davidson diagonalization with overlap
     ethr =  6.21E-08,  avg # of iterations =  2.0

     total cpu time spent up to now is    18411.0 secs

     total energy              =    -172.56863338 Ry
     Harris-Foulkes estimate   =    -172.56863323 Ry
     estimated scf accuracy    <       0.00000221 Ry

     iteration #  6     ecut=   100.00 Ry     beta=0.40
     Davidson diagonalization with overlap
     ethr =  6.14E-09,  avg # of iterations =  3.0

     total cpu time spent up to now is    18453.4 secs

     total energy              =    -172.56863389 Ry
     Harris-Foulkes estimate   =    -172.56863393 Ry
     estimated scf accuracy    <       0.00000040 Ry

     iteration #  7     ecut=   100.00 Ry     beta=0.40
     Davidson diagonalization with overlap
     ethr =  1.11E-09,  avg # of iterations =  2.4

     total cpu time spent up to now is    18493.4 secs

     total energy              =    -172.56863397 Ry
     Harris-Foulkes estimate   =    -172.56863397 Ry
     estimated scf accuracy    <       0.00000004 Ry

     iteration #  8     ecut=   100.00 Ry     beta=0.40
     Davidson diagonalization with overlap
     ethr =  1.15E-10,  avg # of iterations =  2.5

     total cpu time spent up to now is    18534.5 secs

     End of self-consistent calculation

     Number of k-points >= 100: set verbosity='high' to print the bands.

     highest occupied level (ev):     0.2224

!    total energy              =    -172.56863398 Ry
     Harris-Foulkes estimate   =    -172.56863398 Ry
     estimated scf accuracy    <          4.7E-09 Ry

     total all-electron energy =      -644.944898 Ry

     The total energy is the sum of the following terms:

     one-electron contribution =    -116.81843209 Ry
     hartree contribution      =      70.95803665 Ry
     xc contribution           =     -38.58318541 Ry
     ewald contribution        =     -44.32771478 Ry
     one-center paw contrib.   =     -43.79733835 Ry

     convergence has been achieved in   8 iterations

     Forces acting on atoms (Ry/au):

     atom    1 type  2   force =     0.00001237    0.00955404    0.00740204
     atom    2 type  2   force =     0.00019282   -0.00098586    0.01117711
     atom    3 type  2   force =     0.00189069   -0.00312568   -0.01092062
     atom    4 type  2   force =    -0.00635864    0.00028195    0.00478453
     atom    5 type  2   force =     0.00056913   -0.00147926   -0.00389796
     atom    6 type  2   force =    -0.00218995    0.00498292   -0.00299065
     atom    7 type  2   force =     0.04186090    0.00198026   -0.01501222
     atom    8 type  1   force =    -0.00259235    0.00200882   -0.00318229
     atom    9 type  1   force =     0.01369241    0.00507117    0.00857069
     atom   10 type  1   force =    -0.00320970    0.00066029    0.00013508
     atom   11 type  3   force =    -0.00631858   -0.01724311   -0.01295276
     atom   12 type  4   force =    -0.00637036   -0.00427754    0.00366224
     atom   13 type  4   force =    -0.03117873    0.00257199    0.01322481

     Total force =     0.067492     Total SCF correction =     0.000106

     number of scf cycles    =  48
     number of bfgs steps    =  46

     energy   old            =    -172.5649115255 Ry
     energy   new            =    -172.5686339808 Ry

     CASE: energy  _new < energy  _old

     new trust radius        =       0.5040889568 bohr
     new conv_thr            =       0.0000000100 Ry


ATOMIC_POSITIONS (crystal)
H        0.412552744   0.778720184   0.833322942
H        0.349914675   0.841442265   0.504703913
H        0.774386308   0.575745074   0.727674079
H        0.867110898   0.424871672   0.251616886
H        0.460999812   0.211936071   0.834183850
H        0.674490189   0.098576203   0.583409613
H        0.162332624   0.285940138   0.507707866
C        0.608172564   0.536075844   0.589971443
C        0.717721694   0.574375416   0.314651328
C        0.522990626   0.249150145   0.626445629
N        0.384915109   0.702695323   0.649317541
O        0.649305729   0.748612569   0.159466317
O        0.312938027   0.201251098   0.446029592



     Writing output data file aiida.save
     NEW-OLD atomic charge density approx. for the potential

     negative rho (up, down):  6.322E-04 0.000E+00

     total cpu time spent up to now is    18544.0 secs

     per-process dynamical memory:    97.9 Mb

     Self-consistent Calculation

     iteration #  1     ecut=   100.00 Ry     beta=0.40
     Davidson diagonalization with overlap
     ethr =  1.00E-06,  avg # of iterations =  8.0

     total cpu time spent up to now is    18663.5 secs

     total energy              =    -172.56634848 Ry
     Harris-Foulkes estimate   =    -172.56147326 Ry
     estimated scf accuracy    <       0.02694532 Ry

     iteration #  2     ecut=   100.00 Ry     beta=0.40
     Davidson diagonalization with overlap
     ethr =  7.48E-05,  avg # of iterations =  3.0

     total cpu time spent up to now is    18701.4 secs

     total energy              =    -172.56811640 Ry
     Harris-Foulkes estimate   =    -172.57087981 Ry
     estimated scf accuracy    <       0.00724201 Ry

     iteration #  3     ecut=   100.00 Ry     beta=0.40
     Davidson diagonalization with overlap
     ethr =  2.01E-05,  avg # of iterations =  3.0

     total cpu time spent up to now is    18737.4 secs

     total energy              =    -172.56799852 Ry
     Harris-Foulkes estimate   =    -172.56886032 Ry
     estimated scf accuracy    <       0.00151640 Ry

     iteration #  4     ecut=   100.00 Ry     beta=0.40
     Davidson diagonalization with overlap
     ethr =  4.21E-06,  avg # of iterations =  2.0

     total cpu time spent up to now is    18774.2 secs

     total energy              =    -172.56817707 Ry
     Harris-Foulkes estimate   =    -172.56820934 Ry
     estimated scf accuracy    <       0.00015297 Ry

     iteration #  5     ecut=   100.00 Ry     beta=0.40
     Davidson diagonalization with overlap
     ethr =  4.25E-07,  avg # of iterations =  2.6

     total cpu time spent up to now is    18812.4 secs

     total energy              =    -172.56819734 Ry
     Harris-Foulkes estimate   =    -172.56819891 Ry
     estimated scf accuracy    <       0.00003071 Ry

     iteration #  6     ecut=   100.00 Ry     beta=0.40
     Davidson diagonalization with overlap
     ethr =  8.53E-08,  avg # of iterations =  2.0

     total cpu time spent up to now is    18852.0 secs

     total energy              =    -172.56820192 Ry
     Harris-Foulkes estimate   =    -172.56820239 Ry
     estimated scf accuracy    <       0.00000261 Ry

     iteration #  7     ecut=   100.00 Ry     beta=0.40
     Davidson diagonalization with overlap
     ethr =  7.26E-09,  avg # of iterations =  2.8

     total cpu time spent up to now is    18897.0 secs

     total energy              =    -172.56820258 Ry
     Harris-Foulkes estimate   =    -172.56820251 Ry
     estimated scf accuracy    <       0.00000030 Ry

     iteration #  8     ecut=   100.00 Ry     beta=0.40
     Davidson diagonalization with overlap
     ethr =  8.44E-10,  avg # of iterations =  3.3

     total cpu time spent up to now is    18944.4 secs

     total energy              =    -172.56820263 Ry
     Harris-Foulkes estimate   =    -172.56820265 Ry
     estimated scf accuracy    <       0.00000012 Ry

     iteration #  9     ecut=   100.00 Ry     beta=0.40
     Davidson diagonalization with overlap
     ethr =  3.30E-10,  avg # of iterations =  3.0

     total cpu time spent up to now is    18980.6 secs

     End of self-consistent calculation

     Number of k-points >= 100: set verbosity='high' to print the bands.

     highest occupied level (ev):     0.1521

!    total energy              =    -172.56820264 Ry
     Harris-Foulkes estimate   =    -172.56820264 Ry
     estimated scf accuracy    <          7.6E-09 Ry

     total all-electron energy =      -644.944467 Ry

     The total energy is the sum of the following terms:

     one-electron contribution =    -117.69554629 Ry
     hartree contribution      =      71.34722725 Ry
     xc contribution           =     -38.61702364 Ry
     ewald contribution        =     -43.80944279 Ry
     one-center paw contrib.   =     -43.79341718 Ry

     convergence has been achieved in   9 iterations

     Forces acting on atoms (Ry/au):

     atom    1 type  2   force =    -0.00756958    0.01244691   -0.00169439
     atom    2 type  2   force =     0.00159850    0.00202892    0.01416267
     atom    3 type  2   force =     0.00836246    0.00023645   -0.00170266
     atom    4 type  2   force =     0.00287933   -0.00143113    0.00021912
     atom    5 type  2   force =     0.00295988    0.01138381   -0.00916715
     atom    6 type  2   force =     0.00606278    0.01043534   -0.00560622
     atom    7 type  2   force =    -0.07149237    0.05527458    0.03632960
     atom    8 type  1   force =    -0.00505640    0.00342528   -0.00651361
     atom    9 type  1   force =    -0.02041013    0.02096854   -0.01064116
     atom   10 type  1   force =    -0.00534229   -0.00062599   -0.00504782
     atom   11 type  3   force =     0.00124982   -0.02988945   -0.01248082
     atom   12 type  4   force =     0.01095904   -0.02840271    0.03665517
     atom   13 type  4   force =     0.07579896   -0.05585055   -0.03451272

     Total force =     0.157709     Total SCF correction =     0.000130

     number of scf cycles    =  49
     number of bfgs steps    =  47

     energy   old            =    -172.5686339808 Ry
     energy   new            =    -172.5682026434 Ry

     CASE: energy  _new > energy  _old

     new trust radius        =       0.2445488167 bohr
     new conv_thr            =       0.0000000100 Ry


ATOMIC_POSITIONS (crystal)
H        0.405276826   0.782183573   0.826599735
H        0.354152616   0.843108375   0.499289906
H        0.773774286   0.578289080   0.728406087
H        0.864548930   0.420624793   0.248614611
H        0.462839422   0.219389260   0.834619404
H        0.678787037   0.103521222   0.584254947
H        0.151958647   0.265058491   0.521497982
C        0.607990896   0.536790818   0.588964558
C        0.718104411   0.573335063   0.314059512
C        0.523499356   0.250987274   0.626470293
N        0.384380060   0.703008763   0.643735999
O        0.659783067   0.753692166   0.164586837
O        0.312735445   0.199403122   0.447401129



     Writing output data file aiida.save
     NEW-OLD atomic charge density approx. for the potential

     total cpu time spent up to now is    18990.0 secs

     per-process dynamical memory:    97.9 Mb

     Self-consistent Calculation

     iteration #  1     ecut=   100.00 Ry     beta=0.40
     Davidson diagonalization with overlap
     ethr =  1.00E-06,  avg # of iterations =  7.1

     total cpu time spent up to now is    19087.2 secs

     total energy              =    -172.57087561 Ry
     Harris-Foulkes estimate   =    -172.57051344 Ry
     estimated scf accuracy    <       0.00652647 Ry

     iteration #  2     ecut=   100.00 Ry     beta=0.40
     Davidson diagonalization with overlap
     ethr =  1.81E-05,  avg # of iterations =  2.0

     total cpu time spent up to now is    19123.0 secs

     total energy              =    -172.57127362 Ry
     Harris-Foulkes estimate   =    -172.57151712 Ry
     estimated scf accuracy    <       0.00136672 Ry

     iteration #  3     ecut=   100.00 Ry     beta=0.40
     Davidson diagonalization with overlap
     ethr =  3.80E-06,  avg # of iterations =  2.0

     total cpu time spent up to now is    19162.0 secs

     total energy              =    -172.57140059 Ry
     Harris-Foulkes estimate   =    -172.57139818 Ry
     estimated scf accuracy    <       0.00023150 Ry

     iteration #  4     ecut=   100.00 Ry     beta=0.40
     Davidson diagonalization with overlap
     ethr =  6.43E-07,  avg # of iterations =  2.9

     total cpu time spent up to now is    19199.7 secs

     total energy              =    -172.57143535 Ry
     Harris-Foulkes estimate   =    -172.57143445 Ry
     estimated scf accuracy    <       0.00002767 Ry

     iteration #  5     ecut=   100.00 Ry     beta=0.40
     Davidson diagonalization with overlap
     ethr =  7.69E-08,  avg # of iterations =  2.1

     total cpu time spent up to now is    19241.1 secs

     total energy              =    -172.57144104 Ry
     Harris-Foulkes estimate   =    -172.57144100 Ry
     estimated scf accuracy    <       0.00000260 Ry

     iteration #  6     ecut=   100.00 Ry     beta=0.40
     Davidson diagonalization with overlap
     ethr =  7.22E-09,  avg # of iterations =  2.2

     total cpu time spent up to now is    19280.7 secs

     total energy              =    -172.57144153 Ry
     Harris-Foulkes estimate   =    -172.57144148 Ry
     estimated scf accuracy    <       0.00000048 Ry

     iteration #  7     ecut=   100.00 Ry     beta=0.40
     Davidson diagonalization with overlap
     ethr =  1.34E-09,  avg # of iterations =  3.0

     total cpu time spent up to now is    19323.9 secs

     total energy              =    -172.57144159 Ry
     Harris-Foulkes estimate   =    -172.57144164 Ry
     estimated scf accuracy    <       0.00000012 Ry

     iteration #  8     ecut=   100.00 Ry     beta=0.40
     Davidson diagonalization with overlap
     ethr =  3.38E-10,  avg # of iterations =  3.8

     total cpu time spent up to now is    19366.0 secs

     total energy              =    -172.57144162 Ry
     Harris-Foulkes estimate   =    -172.57144162 Ry
     estimated scf accuracy    <       0.00000002 Ry

     iteration #  9     ecut=   100.00 Ry     beta=0.40
     Davidson diagonalization with overlap
     ethr =  5.20E-11,  avg # of iterations =  2.4

     total cpu time spent up to now is    19404.0 secs

     End of self-consistent calculation

     Number of k-points >= 100: set verbosity='high' to print the bands.

     highest occupied level (ev):     0.1886

!    total energy              =    -172.57144162 Ry
     Harris-Foulkes estimate   =    -172.57144162 Ry
     estimated scf accuracy    <          2.0E-09 Ry

     total all-electron energy =      -644.947706 Ry

     The total energy is the sum of the following terms:

     one-electron contribution =    -117.35223203 Ry
     hartree contribution      =      71.19738603 Ry
     xc contribution           =     -38.60878627 Ry
     ewald contribution        =     -44.01277046 Ry
     one-center paw contrib.   =     -43.79503889 Ry

     convergence has been achieved in   9 iterations

     Forces acting on atoms (Ry/au):

     atom    1 type  2   force =    -0.00337814    0.01136226    0.00378170
     atom    2 type  2   force =     0.00069194    0.00078303    0.01234178
     atom    3 type  2   force =     0.00497973   -0.00140922   -0.00644747
     atom    4 type  2   force =    -0.00157850   -0.00102375    0.00268279
     atom    5 type  2   force =     0.00160757    0.00459070   -0.00632567
     atom    6 type  2   force =     0.00177820    0.00757411   -0.00428404
     atom    7 type  2   force =    -0.02027569    0.02299422    0.01574219
     atom    8 type  1   force =    -0.00355100    0.00243772   -0.00452089
     atom    9 type  1   force =    -0.00150111    0.01076903    0.00162804
     atom   10 type  1   force =    -0.00395565    0.00054692   -0.00279445
     atom   11 type  3   force =    -0.00273482   -0.02393346   -0.01272190
     atom   12 type  4   force =     0.00005681   -0.01352357    0.01676458
     atom   13 type  4   force =     0.02786065   -0.02116799   -0.01584666

     Total force =     0.067695     Total SCF correction =     0.000080

     number of scf cycles    =  50
     number of bfgs steps    =  47

     energy   old            =    -172.5686339808 Ry
     energy   new            =    -172.5714416227 Ry

     CASE: energy  _new < energy  _old

     new trust radius        =       0.7336464500 bohr

     The maximum number of steps has been reached.

     End of BFGS Geometry Optimization
Begin final coordinates

ATOMIC_POSITIONS (crystal)
H        0.405067022   0.767743359   0.839534154
H        0.335116791   0.835571563   0.510828874
H        0.771542001   0.577410818   0.732622266
H        0.873980268   0.428892677   0.257220024
H        0.462975043   0.203731101   0.831994503
H        0.679657610   0.095653352   0.582835672
H        0.167174277   0.332161498   0.487894228
C        0.609012452   0.534732633   0.592193203
C        0.719477358   0.575031435   0.317878055
C        0.527189856   0.245350874   0.625644384
N        0.380545134   0.694205604   0.652160491
O        0.644453985   0.743622088   0.158043211
O        0.321639203   0.195284997   0.439651935
End final coordinates



     Writing output data file aiida.save

     init_run     :     35.90s CPU     37.67s WALL (       1 calls)
     electrons    :  18600.18s CPU  18883.99s WALL (      50 calls)
     update_pot   :     48.73s CPU     49.71s WALL (      49 calls)
     forces       :    315.28s CPU    318.79s WALL (      50 calls)

     Called by init_run:
     wfcinit      :     33.22s CPU     34.69s WALL (       1 calls)
     potinit      :      1.15s CPU      1.30s WALL (       1 calls)

     Called by electrons:
     c_bands      :  16217.22s CPU  16455.53s WALL (     406 calls)
     sum_band     :   2213.44s CPU   2256.15s WALL (     406 calls)
     v_of_rho     :     55.94s CPU     56.82s WALL (     456 calls)
     newd         :     78.49s CPU     79.25s WALL (     456 calls)
     mix_rho      :      6.85s CPU      7.16s WALL (     406 calls)

     Called by c_bands:
     init_us_2    :    234.60s CPU    239.58s WALL (  156864 calls)
     cegterg      :  15884.06s CPU  16114.14s WALL (   69832 calls)

     Called by *egterg:
     h_psi        :  10300.46s CPU  10465.96s WALL (  281592 calls)
     s_psi        :   1268.15s CPU   1280.87s WALL (  281592 calls)
     g_psi        :     46.28s CPU     46.20s WALL (  211588 calls)
     cdiaghg      :    886.46s CPU    898.34s WALL (  272992 calls)

     Called by h_psi:
     add_vuspsi   :   1280.78s CPU   1294.68s WALL (  281592 calls)

     General routines
     calbec       :   2059.38s CPU   2086.62s WALL (  368452 calls)
     fft          :     53.26s CPU     54.57s WALL (    7695 calls)
     ffts         :      1.18s CPU      1.25s WALL (     862 calls)
     fftw         :   7128.70s CPU   7257.89s WALL ( 9022800 calls)
     interpolate  :      7.18s CPU      7.49s WALL (     862 calls)
     davcio       :      0.02s CPU      0.13s WALL (     172 calls)

     Parallel routines
     fft_scatter  :   4417.74s CPU   4513.75s WALL ( 9031357 calls)

     PAW routines
     PAW_pot      :     46.10s CPU     46.49s WALL (     505 calls)

     PWSCF        :     5h18m CPU        5h23m WALL


   This run was terminated on:   3:18:28   9Jan2023            

=------------------------------------------------------------------------------=
   JOB DONE.
=------------------------------------------------------------------------------=
