
     Program PWSCF v.5.1 starts on 10Jan2023 at 13:25:53 

     This program is part of the open-source Quantum ESPRESSO suite
     for quantum simulation of materials; please cite
         "P. Giannozzi et al., J. Phys.:Condens. Matter 21 395502 (2009);
          URL http://www.quantum-espresso.org", 
     in publications or presentations arising from this work. More details at
     http://www.quantum-espresso.org/quote

     Parallel version (MPI), running on     8 processors
     R & G space division:  proc/nbgrp/npool/nimage =       8
     Waiting for input...
     Reading input from standard input

     Current dimensions of program PWSCF are:
     Max number of different atomic species (ntypx) = 10
     Max number of k-points (npk) =  40000
     Max angular momentum in pseudopotentials (lmaxx) =  3

     Atomic positions and unit cell read from directory:
     ./out/aiida.save/

               file C.pbesol-n-kjpaw_psl.1.0.0.UPF: wavefunction(s)  2S 2P renormalized
               file H.pbesol-kjpaw_psl.0.1.UPF: wavefunction(s)  1S renormalized
               file N.pbesol-n-kjpaw_psl.0.1.UPF: wavefunction(s)  2P renormalized
               file O.pbesol-n-kjpaw_psl.0.1.UPF: wavefunction(s)  2P renormalized

     Subspace diagonalization in iterative solution of the eigenvalue problem:
     scalapack distributed-memory algorithm (size of sub-group:  2*  2 procs)


     Parallelization info
     --------------------
     sticks:   dense  smooth     PW     G-vecs:    dense   smooth      PW
     Min         730     366    100                41994    14868    2180
     Max         731     367    101                41997    14885    2184
     Sum        5845    2933    805               335971   119009   17461



     bravais-lattice index     =            0
     lattice parameter (alat)  =       9.5809  a.u.
     unit-cell volume          =     879.4689 (a.u.)^3
     number of atoms/cell      =           13
     number of atomic types    =            4
     number of electrons       =        36.00
     number of Kohn-Sham states=          100
     kinetic-energy cutoff     =     100.0000  Ry
     charge density cutoff     =     800.0000  Ry
     Exchange-correlation      =  SLA  PW   PSX  PSC ( 1  4 10  8 0)

     celldm(1)=   9.580911  celldm(2)=   0.000000  celldm(3)=   0.000000
     celldm(4)=   0.000000  celldm(5)=   0.000000  celldm(6)=   0.000000

     crystal axes: (cart. coord. in units of alat)
               a(1) = (   1.000000   0.000000   0.000000 )  
               a(2) = (   0.000000   1.000000   0.000000 )  
               a(3) = (   0.000000   0.000000   1.000000 )  

     reciprocal axes: (cart. coord. in units 2 pi/alat)
               b(1) = (  1.000000  0.000000  0.000000 )  
               b(2) = (  0.000000  1.000000  0.000000 )  
               b(3) = (  0.000000  0.000000  1.000000 )  


     PseudoPot. # 1 for  C read from file:
     ./pseudo/C.pbesol-n-kjpaw_psl.1.0.0.UPF
     MD5 check sum: 5f3a56537b2bcef3348431d8311bb923
     Pseudo is Projector augmented-wave + core cor, Zval =  4.0
     Generated using "atomic" code by A. Dal Corso  v.6.0 svn rev. 13079
     Shape of augmentation charge: PSQ
     Using radial grid of 1073 points,  4 beta functions with: 
                l(1) =   0
                l(2) =   0
                l(3) =   1
                l(4) =   1
     Q(r) pseudized with 0 coefficients 


     PseudoPot. # 2 for  H read from file:
     ./pseudo/H.pbesol-kjpaw_psl.0.1.UPF
     MD5 check sum: 27a6b98f1514c59d399e798f1258b8b7
     Pseudo is Projector augmented-wave, Zval =  1.0
     Generated using "atomic" code by A. Dal Corso  v.5.0.2 svn rev. 9415
     Shape of augmentation charge: PSQ
     Using radial grid of  929 points,  2 beta functions with: 
                l(1) =   0
                l(2) =   0
     Q(r) pseudized with 0 coefficients 


     PseudoPot. # 3 for  N read from file:
     ./pseudo/N.pbesol-n-kjpaw_psl.0.1.UPF
     MD5 check sum: 15bd223d5d75e9eda893d0f4e6bdad1b
     Pseudo is Projector augmented-wave + core cor, Zval =  5.0
     Generated using "atomic" code by A. Dal Corso  v.6.3
     Shape of augmentation charge: PSQ
     Using radial grid of 1085 points,  4 beta functions with: 
                l(1) =   0
                l(2) =   0
                l(3) =   1
                l(4) =   1
     Q(r) pseudized with 0 coefficients 


     PseudoPot. # 4 for  O read from file:
     ./pseudo/O.pbesol-n-kjpaw_psl.0.1.UPF
     MD5 check sum: 81d73d1479e654e5638b0319f0d6c2c7
     Pseudo is Projector augmented-wave + core cor, Zval =  6.0
     Generated using "atomic" code by A. Dal Corso  v.6.0 svn rev. 13079
     Shape of augmentation charge: BESSEL
     Using radial grid of 1095 points,  4 beta functions with: 
                l(1) =   0
                l(2) =   0
                l(3) =   1
                l(4) =   1
     Q(r) pseudized with 0 coefficients 


     atomic species   valence    mass     pseudopotential
        C              4.00    12.01070      C( 1.00)
        H              1.00     1.00794      H( 1.00)
        N              5.00    14.00670      N( 1.00)
        O              6.00    15.99940      O( 1.00)

     No symmetry found


                                    s                        frac. trans.

      isym =  1     identity                                     

 cryst.   s( 1) = (     1          0          0      )
                  (     0          1          0      )
                  (     0          0          1      )

 cart.    s( 1) = (  1.0000000  0.0000000  0.0000000 )
                  (  0.0000000  1.0000000  0.0000000 )
                  (  0.0000000  0.0000000  1.0000000 )


     point group C_1 (1)    
     there are  1 classes
     the character table:

       E    
A      1.00

     the symmetry operations in each class:
     E        1

   Cartesian axes

     site n.     atom                  positions (alat units)
         1           H   tau(   1) = (   0.4050670   0.7677434   0.8395342  )
         2           H   tau(   2) = (   0.3351168   0.8355716   0.5108289  )
         3           H   tau(   3) = (   0.7715420   0.5774108   0.7326223  )
         4           H   tau(   4) = (   0.8739803   0.4288927   0.2572200  )
         5           H   tau(   5) = (   0.4629750   0.2037311   0.8319945  )
         6           H   tau(   6) = (   0.6796576   0.0956534   0.5828357  )
         7           H   tau(   7) = (   0.1671743   0.3321615   0.4878942  )
         8           C   tau(   8) = (   0.6090125   0.5347326   0.5921932  )
         9           C   tau(   9) = (   0.7194774   0.5750314   0.3178781  )
        10           C   tau(  10) = (   0.5271899   0.2453509   0.6256444  )
        11           N   tau(  11) = (   0.3805451   0.6942056   0.6521605  )
        12           O   tau(  12) = (   0.6444540   0.7436221   0.1580432  )
        13           O   tau(  13) = (   0.3216392   0.1952850   0.4396519  )

   Crystallographic axes

     site n.     atom                  positions (cryst. coord.)
         1           H   tau(   1) = (  0.4050670  0.7677434  0.8395342  )
         2           H   tau(   2) = (  0.3351168  0.8355716  0.5108289  )
         3           H   tau(   3) = (  0.7715420  0.5774108  0.7326223  )
         4           H   tau(   4) = (  0.8739803  0.4288927  0.2572200  )
         5           H   tau(   5) = (  0.4629750  0.2037311  0.8319945  )
         6           H   tau(   6) = (  0.6796576  0.0956534  0.5828357  )
         7           H   tau(   7) = (  0.1671743  0.3321615  0.4878942  )
         8           C   tau(   8) = (  0.6090125  0.5347326  0.5921932  )
         9           C   tau(   9) = (  0.7194774  0.5750314  0.3178781  )
        10           C   tau(  10) = (  0.5271899  0.2453509  0.6256444  )
        11           N   tau(  11) = (  0.3805451  0.6942056  0.6521605  )
        12           O   tau(  12) = (  0.6444540  0.7436221  0.1580432  )
        13           O   tau(  13) = (  0.3216392  0.1952850  0.4396519  )

     number of k points=  1376 (tetrahedron method)
                       cart. coord. in units 2pi/alat
        k(    1) = (   0.0000000   0.0000000   0.0000000), wk =   0.0007289
        k(    2) = (   0.0000000   0.0000000   0.0714286), wk =   0.0014577
        k(    3) = (   0.0000000   0.0000000   0.1428571), wk =   0.0014577
        k(    4) = (   0.0000000   0.0000000   0.2142857), wk =   0.0014577
        k(    5) = (   0.0000000   0.0000000   0.2857143), wk =   0.0014577
        k(    6) = (   0.0000000   0.0000000   0.3571429), wk =   0.0014577
        k(    7) = (   0.0000000   0.0000000   0.4285714), wk =   0.0014577
        k(    8) = (   0.0000000   0.0000000  -0.5000000), wk =   0.0007289
        k(    9) = (   0.0000000   0.0714286   0.0714286), wk =   0.0014577
        k(   10) = (   0.0000000   0.0714286   0.1428571), wk =   0.0014577
        k(   11) = (   0.0000000   0.0714286   0.2142857), wk =   0.0014577
        k(   12) = (   0.0000000   0.0714286   0.2857143), wk =   0.0014577
        k(   13) = (   0.0000000   0.0714286   0.3571429), wk =   0.0014577
        k(   14) = (   0.0000000   0.0714286   0.4285714), wk =   0.0014577
        k(   15) = (   0.0000000   0.0714286  -0.5000000), wk =   0.0014577
        k(   16) = (   0.0000000   0.1428571   0.1428571), wk =   0.0014577
        k(   17) = (   0.0000000   0.1428571   0.2142857), wk =   0.0014577
        k(   18) = (   0.0000000   0.1428571   0.2857143), wk =   0.0014577
        k(   19) = (   0.0000000   0.1428571   0.3571429), wk =   0.0014577
        k(   20) = (   0.0000000   0.1428571   0.4285714), wk =   0.0014577
        k(   21) = (   0.0000000   0.1428571  -0.5000000), wk =   0.0014577
        k(   22) = (   0.0000000   0.2142857   0.2142857), wk =   0.0014577
        k(   23) = (   0.0000000   0.2142857   0.2857143), wk =   0.0014577
        k(   24) = (   0.0000000   0.2142857   0.3571429), wk =   0.0014577
        k(   25) = (   0.0000000   0.2142857   0.4285714), wk =   0.0014577
        k(   26) = (   0.0000000   0.2142857  -0.5000000), wk =   0.0014577
        k(   27) = (   0.0000000   0.2857143   0.2857143), wk =   0.0014577
        k(   28) = (   0.0000000   0.2857143   0.3571429), wk =   0.0014577
        k(   29) = (   0.0000000   0.2857143   0.4285714), wk =   0.0014577
        k(   30) = (   0.0000000   0.2857143  -0.5000000), wk =   0.0014577
        k(   31) = (   0.0000000   0.3571429   0.3571429), wk =   0.0014577
        k(   32) = (   0.0000000   0.3571429   0.4285714), wk =   0.0014577
        k(   33) = (   0.0000000   0.3571429  -0.5000000), wk =   0.0014577
        k(   34) = (   0.0000000   0.4285714   0.4285714), wk =   0.0014577
        k(   35) = (   0.0000000   0.4285714  -0.5000000), wk =   0.0014577
        k(   36) = (   0.0000000  -0.5000000  -0.5000000), wk =   0.0007289
        k(   37) = (   0.0714286   0.0714286   0.0714286), wk =   0.0014577
        k(   38) = (   0.0714286   0.0714286   0.1428571), wk =   0.0014577
        k(   39) = (   0.0714286   0.0714286   0.2142857), wk =   0.0014577
        k(   40) = (   0.0714286   0.0714286   0.2857143), wk =   0.0014577
        k(   41) = (   0.0714286   0.0714286   0.3571429), wk =   0.0014577
        k(   42) = (   0.0714286   0.0714286   0.4285714), wk =   0.0014577
        k(   43) = (   0.0714286   0.0714286  -0.5000000), wk =   0.0014577
        k(   44) = (   0.0714286   0.1428571   0.1428571), wk =   0.0014577
        k(   45) = (   0.0714286   0.1428571   0.2142857), wk =   0.0014577
        k(   46) = (   0.0714286   0.1428571   0.2857143), wk =   0.0014577
        k(   47) = (   0.0714286   0.1428571   0.3571429), wk =   0.0014577
        k(   48) = (   0.0714286   0.1428571   0.4285714), wk =   0.0014577
        k(   49) = (   0.0714286   0.1428571  -0.5000000), wk =   0.0014577
        k(   50) = (   0.0714286   0.2142857   0.2142857), wk =   0.0014577
        k(   51) = (   0.0714286   0.2142857   0.2857143), wk =   0.0014577
        k(   52) = (   0.0714286   0.2142857   0.3571429), wk =   0.0014577
        k(   53) = (   0.0714286   0.2142857   0.4285714), wk =   0.0014577
        k(   54) = (   0.0714286   0.2142857  -0.5000000), wk =   0.0014577
        k(   55) = (   0.0714286   0.2857143   0.2857143), wk =   0.0014577
        k(   56) = (   0.0714286   0.2857143   0.3571429), wk =   0.0014577
        k(   57) = (   0.0714286   0.2857143   0.4285714), wk =   0.0014577
        k(   58) = (   0.0714286   0.2857143  -0.5000000), wk =   0.0014577
        k(   59) = (   0.0714286   0.3571429   0.3571429), wk =   0.0014577
        k(   60) = (   0.0714286   0.3571429   0.4285714), wk =   0.0014577
        k(   61) = (   0.0714286   0.3571429  -0.5000000), wk =   0.0014577
        k(   62) = (   0.0714286   0.4285714   0.4285714), wk =   0.0014577
        k(   63) = (   0.0714286   0.4285714  -0.5000000), wk =   0.0014577
        k(   64) = (   0.0714286  -0.5000000  -0.5000000), wk =   0.0014577
        k(   65) = (   0.1428571   0.1428571   0.1428571), wk =   0.0014577
        k(   66) = (   0.1428571   0.1428571   0.2142857), wk =   0.0014577
        k(   67) = (   0.1428571   0.1428571   0.2857143), wk =   0.0014577
        k(   68) = (   0.1428571   0.1428571   0.3571429), wk =   0.0014577
        k(   69) = (   0.1428571   0.1428571   0.4285714), wk =   0.0014577
        k(   70) = (   0.1428571   0.1428571  -0.5000000), wk =   0.0014577
        k(   71) = (   0.1428571   0.2142857   0.2142857), wk =   0.0014577
        k(   72) = (   0.1428571   0.2142857   0.2857143), wk =   0.0014577
        k(   73) = (   0.1428571   0.2142857   0.3571429), wk =   0.0014577
        k(   74) = (   0.1428571   0.2142857   0.4285714), wk =   0.0014577
        k(   75) = (   0.1428571   0.2142857  -0.5000000), wk =   0.0014577
        k(   76) = (   0.1428571   0.2857143   0.2857143), wk =   0.0014577
        k(   77) = (   0.1428571   0.2857143   0.3571429), wk =   0.0014577
        k(   78) = (   0.1428571   0.2857143   0.4285714), wk =   0.0014577
        k(   79) = (   0.1428571   0.2857143  -0.5000000), wk =   0.0014577
        k(   80) = (   0.1428571   0.3571429   0.3571429), wk =   0.0014577
        k(   81) = (   0.1428571   0.3571429   0.4285714), wk =   0.0014577
        k(   82) = (   0.1428571   0.3571429  -0.5000000), wk =   0.0014577
        k(   83) = (   0.1428571   0.4285714   0.4285714), wk =   0.0014577
        k(   84) = (   0.1428571   0.4285714  -0.5000000), wk =   0.0014577
        k(   85) = (   0.1428571  -0.5000000  -0.5000000), wk =   0.0014577
        k(   86) = (   0.2142857   0.2142857   0.2142857), wk =   0.0014577
        k(   87) = (   0.2142857   0.2142857   0.2857143), wk =   0.0014577
        k(   88) = (   0.2142857   0.2142857   0.3571429), wk =   0.0014577
        k(   89) = (   0.2142857   0.2142857   0.4285714), wk =   0.0014577
        k(   90) = (   0.2142857   0.2142857  -0.5000000), wk =   0.0014577
        k(   91) = (   0.2142857   0.2857143   0.2857143), wk =   0.0014577
        k(   92) = (   0.2142857   0.2857143   0.3571429), wk =   0.0014577
        k(   93) = (   0.2142857   0.2857143   0.4285714), wk =   0.0014577
        k(   94) = (   0.2142857   0.2857143  -0.5000000), wk =   0.0014577
        k(   95) = (   0.2142857   0.3571429   0.3571429), wk =   0.0014577
        k(   96) = (   0.2142857   0.3571429   0.4285714), wk =   0.0014577
        k(   97) = (   0.2142857   0.3571429  -0.5000000), wk =   0.0014577
        k(   98) = (   0.2142857   0.4285714   0.4285714), wk =   0.0014577
        k(   99) = (   0.2142857   0.4285714  -0.5000000), wk =   0.0014577
        k(  100) = (   0.2142857  -0.5000000  -0.5000000), wk =   0.0014577
        k(  101) = (   0.2857143   0.2857143   0.2857143), wk =   0.0014577
        k(  102) = (   0.2857143   0.2857143   0.3571429), wk =   0.0014577
        k(  103) = (   0.2857143   0.2857143   0.4285714), wk =   0.0014577
        k(  104) = (   0.2857143   0.2857143  -0.5000000), wk =   0.0014577
        k(  105) = (   0.2857143   0.3571429   0.3571429), wk =   0.0014577
        k(  106) = (   0.2857143   0.3571429   0.4285714), wk =   0.0014577
        k(  107) = (   0.2857143   0.3571429  -0.5000000), wk =   0.0014577
        k(  108) = (   0.2857143   0.4285714   0.4285714), wk =   0.0014577
        k(  109) = (   0.2857143   0.4285714  -0.5000000), wk =   0.0014577
        k(  110) = (   0.2857143  -0.5000000  -0.5000000), wk =   0.0014577
        k(  111) = (   0.3571429   0.3571429   0.3571429), wk =   0.0014577
        k(  112) = (   0.3571429   0.3571429   0.4285714), wk =   0.0014577
        k(  113) = (   0.3571429   0.3571429  -0.5000000), wk =   0.0014577
        k(  114) = (   0.3571429   0.4285714   0.4285714), wk =   0.0014577
        k(  115) = (   0.3571429   0.4285714  -0.5000000), wk =   0.0014577
        k(  116) = (   0.3571429  -0.5000000  -0.5000000), wk =   0.0014577
        k(  117) = (   0.4285714   0.4285714   0.4285714), wk =   0.0014577
        k(  118) = (   0.4285714   0.4285714  -0.5000000), wk =   0.0014577
        k(  119) = (   0.4285714  -0.5000000  -0.5000000), wk =   0.0014577
        k(  120) = (  -0.5000000  -0.5000000  -0.5000000), wk =   0.0007289
        k(  121) = (   0.0714286   0.0000000   0.0000000), wk =   0.0014577
        k(  122) = (   0.0000000   0.0714286   0.0000000), wk =   0.0014577
        k(  123) = (   0.1428571   0.0000000   0.0000000), wk =   0.0014577
        k(  124) = (   0.0000000   0.1428571   0.0000000), wk =   0.0014577
        k(  125) = (   0.2142857   0.0000000   0.0000000), wk =   0.0014577
        k(  126) = (   0.0000000   0.2142857   0.0000000), wk =   0.0014577
        k(  127) = (   0.2857143   0.0000000   0.0000000), wk =   0.0014577
        k(  128) = (   0.0000000   0.2857143   0.0000000), wk =   0.0014577
        k(  129) = (   0.3571429   0.0000000   0.0000000), wk =   0.0014577
        k(  130) = (   0.0000000   0.3571429   0.0000000), wk =   0.0014577
        k(  131) = (   0.4285714   0.0000000   0.0000000), wk =   0.0014577
        k(  132) = (   0.0000000   0.4285714   0.0000000), wk =   0.0014577
        k(  133) = (  -0.5000000   0.0000000   0.0000000), wk =   0.0007289
        k(  134) = (   0.0000000  -0.5000000   0.0000000), wk =   0.0007289
        k(  135) = (   0.0000000  -0.0714286   0.0714286), wk =   0.0014577
        k(  136) = (   0.0714286   0.0000000  -0.0714286), wk =   0.0014577
        k(  137) = (  -0.0714286   0.0000000  -0.0714286), wk =   0.0014577
        k(  138) = (   0.0714286  -0.0714286   0.0000000), wk =   0.0014577
        k(  139) = (  -0.0714286  -0.0714286   0.0000000), wk =   0.0014577
        k(  140) = (   0.0000000  -0.0714286   0.1428571), wk =   0.0014577
        k(  141) = (   0.0714286   0.0000000  -0.1428571), wk =   0.0014577
        k(  142) = (  -0.0714286   0.0000000  -0.1428571), wk =   0.0014577
        k(  143) = (   0.1428571  -0.0714286   0.0000000), wk =   0.0014577
        k(  144) = (  -0.1428571  -0.0714286   0.0000000), wk =   0.0014577
        k(  145) = (   0.0000000   0.1428571   0.0714286), wk =   0.0014577
        k(  146) = (   0.0000000   0.1428571  -0.0714286), wk =   0.0014577
        k(  147) = (   0.0714286   0.1428571   0.0000000), wk =   0.0014577
        k(  148) = (  -0.0714286   0.1428571   0.0000000), wk =   0.0014577
        k(  149) = (   0.1428571   0.0000000   0.0714286), wk =   0.0014577
        k(  150) = (   0.1428571   0.0000000  -0.0714286), wk =   0.0014577
        k(  151) = (   0.0000000  -0.0714286   0.2142857), wk =   0.0014577
        k(  152) = (   0.0714286   0.0000000  -0.2142857), wk =   0.0014577
        k(  153) = (  -0.0714286   0.0000000  -0.2142857), wk =   0.0014577
        k(  154) = (   0.2142857  -0.0714286   0.0000000), wk =   0.0014577
        k(  155) = (  -0.2142857  -0.0714286   0.0000000), wk =   0.0014577
        k(  156) = (   0.0000000   0.2142857   0.0714286), wk =   0.0014577
        k(  157) = (   0.0000000   0.2142857  -0.0714286), wk =   0.0014577
        k(  158) = (   0.0714286   0.2142857   0.0000000), wk =   0.0014577
        k(  159) = (  -0.0714286   0.2142857   0.0000000), wk =   0.0014577
        k(  160) = (   0.2142857   0.0000000   0.0714286), wk =   0.0014577
        k(  161) = (   0.2142857   0.0000000  -0.0714286), wk =   0.0014577
        k(  162) = (   0.0000000  -0.0714286   0.2857143), wk =   0.0014577
        k(  163) = (   0.0714286   0.0000000  -0.2857143), wk =   0.0014577
        k(  164) = (  -0.0714286   0.0000000  -0.2857143), wk =   0.0014577
        k(  165) = (   0.2857143  -0.0714286   0.0000000), wk =   0.0014577
        k(  166) = (  -0.2857143  -0.0714286   0.0000000), wk =   0.0014577
        k(  167) = (   0.0000000   0.2857143   0.0714286), wk =   0.0014577
        k(  168) = (   0.0000000   0.2857143  -0.0714286), wk =   0.0014577
        k(  169) = (   0.0714286   0.2857143   0.0000000), wk =   0.0014577
        k(  170) = (  -0.0714286   0.2857143   0.0000000), wk =   0.0014577
        k(  171) = (   0.2857143   0.0000000   0.0714286), wk =   0.0014577
        k(  172) = (   0.2857143   0.0000000  -0.0714286), wk =   0.0014577
        k(  173) = (   0.0000000  -0.0714286   0.3571429), wk =   0.0014577
        k(  174) = (   0.0714286   0.0000000  -0.3571429), wk =   0.0014577
        k(  175) = (  -0.0714286   0.0000000  -0.3571429), wk =   0.0014577
        k(  176) = (   0.3571429  -0.0714286   0.0000000), wk =   0.0014577
        k(  177) = (  -0.3571429  -0.0714286   0.0000000), wk =   0.0014577
        k(  178) = (   0.0000000   0.3571429   0.0714286), wk =   0.0014577
        k(  179) = (   0.0000000   0.3571429  -0.0714286), wk =   0.0014577
        k(  180) = (   0.0714286   0.3571429   0.0000000), wk =   0.0014577
        k(  181) = (  -0.0714286   0.3571429   0.0000000), wk =   0.0014577
        k(  182) = (   0.3571429   0.0000000   0.0714286), wk =   0.0014577
        k(  183) = (   0.3571429   0.0000000  -0.0714286), wk =   0.0014577
        k(  184) = (   0.0000000  -0.0714286   0.4285714), wk =   0.0014577
        k(  185) = (   0.0714286   0.0000000  -0.4285714), wk =   0.0014577
        k(  186) = (  -0.0714286   0.0000000  -0.4285714), wk =   0.0014577
        k(  187) = (   0.4285714  -0.0714286   0.0000000), wk =   0.0014577
        k(  188) = (  -0.4285714  -0.0714286   0.0000000), wk =   0.0014577
        k(  189) = (   0.0000000   0.4285714   0.0714286), wk =   0.0014577
        k(  190) = (   0.0000000   0.4285714  -0.0714286), wk =   0.0014577
        k(  191) = (   0.0714286   0.4285714   0.0000000), wk =   0.0014577
        k(  192) = (  -0.0714286   0.4285714   0.0000000), wk =   0.0014577
        k(  193) = (   0.4285714   0.0000000   0.0714286), wk =   0.0014577
        k(  194) = (   0.4285714   0.0000000  -0.0714286), wk =   0.0014577
        k(  195) = (   0.0714286   0.0000000   0.5000000), wk =   0.0014577
        k(  196) = (  -0.5000000  -0.0714286   0.0000000), wk =   0.0014577
        k(  197) = (   0.0000000  -0.5000000   0.0714286), wk =   0.0014577
        k(  198) = (   0.0714286  -0.5000000   0.0000000), wk =   0.0014577
        k(  199) = (  -0.5000000   0.0000000   0.0714286), wk =   0.0014577
        k(  200) = (   0.0000000  -0.1428571   0.1428571), wk =   0.0014577
        k(  201) = (   0.1428571   0.0000000  -0.1428571), wk =   0.0014577
        k(  202) = (  -0.1428571   0.0000000  -0.1428571), wk =   0.0014577
        k(  203) = (   0.1428571  -0.1428571   0.0000000), wk =   0.0014577
        k(  204) = (  -0.1428571  -0.1428571   0.0000000), wk =   0.0014577
        k(  205) = (   0.0000000  -0.1428571   0.2142857), wk =   0.0014577
        k(  206) = (   0.1428571   0.0000000  -0.2142857), wk =   0.0014577
        k(  207) = (  -0.1428571   0.0000000  -0.2142857), wk =   0.0014577
        k(  208) = (   0.2142857  -0.1428571   0.0000000), wk =   0.0014577
        k(  209) = (  -0.2142857  -0.1428571   0.0000000), wk =   0.0014577
        k(  210) = (   0.0000000   0.2142857   0.1428571), wk =   0.0014577
        k(  211) = (   0.0000000   0.2142857  -0.1428571), wk =   0.0014577
        k(  212) = (   0.1428571   0.2142857   0.0000000), wk =   0.0014577
        k(  213) = (  -0.1428571   0.2142857   0.0000000), wk =   0.0014577
        k(  214) = (   0.2142857   0.0000000   0.1428571), wk =   0.0014577
        k(  215) = (   0.2142857   0.0000000  -0.1428571), wk =   0.0014577
        k(  216) = (   0.0000000  -0.1428571   0.2857143), wk =   0.0014577
        k(  217) = (   0.1428571   0.0000000  -0.2857143), wk =   0.0014577
        k(  218) = (  -0.1428571   0.0000000  -0.2857143), wk =   0.0014577
        k(  219) = (   0.2857143  -0.1428571   0.0000000), wk =   0.0014577
        k(  220) = (  -0.2857143  -0.1428571   0.0000000), wk =   0.0014577
        k(  221) = (   0.0000000   0.2857143   0.1428571), wk =   0.0014577
        k(  222) = (   0.0000000   0.2857143  -0.1428571), wk =   0.0014577
        k(  223) = (   0.1428571   0.2857143   0.0000000), wk =   0.0014577
        k(  224) = (  -0.1428571   0.2857143   0.0000000), wk =   0.0014577
        k(  225) = (   0.2857143   0.0000000   0.1428571), wk =   0.0014577
        k(  226) = (   0.2857143   0.0000000  -0.1428571), wk =   0.0014577
        k(  227) = (   0.0000000  -0.1428571   0.3571429), wk =   0.0014577
        k(  228) = (   0.1428571   0.0000000  -0.3571429), wk =   0.0014577
        k(  229) = (  -0.1428571   0.0000000  -0.3571429), wk =   0.0014577
        k(  230) = (   0.3571429  -0.1428571   0.0000000), wk =   0.0014577
        k(  231) = (  -0.3571429  -0.1428571   0.0000000), wk =   0.0014577
        k(  232) = (   0.0000000   0.3571429   0.1428571), wk =   0.0014577
        k(  233) = (   0.0000000   0.3571429  -0.1428571), wk =   0.0014577
        k(  234) = (   0.1428571   0.3571429   0.0000000), wk =   0.0014577
        k(  235) = (  -0.1428571   0.3571429   0.0000000), wk =   0.0014577
        k(  236) = (   0.3571429   0.0000000   0.1428571), wk =   0.0014577
        k(  237) = (   0.3571429   0.0000000  -0.1428571), wk =   0.0014577
        k(  238) = (   0.0000000  -0.1428571   0.4285714), wk =   0.0014577
        k(  239) = (   0.1428571   0.0000000  -0.4285714), wk =   0.0014577
        k(  240) = (  -0.1428571   0.0000000  -0.4285714), wk =   0.0014577
        k(  241) = (   0.4285714  -0.1428571   0.0000000), wk =   0.0014577
        k(  242) = (  -0.4285714  -0.1428571   0.0000000), wk =   0.0014577
        k(  243) = (   0.0000000   0.4285714   0.1428571), wk =   0.0014577
        k(  244) = (   0.0000000   0.4285714  -0.1428571), wk =   0.0014577
        k(  245) = (   0.1428571   0.4285714   0.0000000), wk =   0.0014577
        k(  246) = (  -0.1428571   0.4285714   0.0000000), wk =   0.0014577
        k(  247) = (   0.4285714   0.0000000   0.1428571), wk =   0.0014577
        k(  248) = (   0.4285714   0.0000000  -0.1428571), wk =   0.0014577
        k(  249) = (   0.1428571   0.0000000   0.5000000), wk =   0.0014577
        k(  250) = (  -0.5000000  -0.1428571   0.0000000), wk =   0.0014577
        k(  251) = (   0.0000000  -0.5000000   0.1428571), wk =   0.0014577
        k(  252) = (   0.1428571  -0.5000000   0.0000000), wk =   0.0014577
        k(  253) = (  -0.5000000   0.0000000   0.1428571), wk =   0.0014577
        k(  254) = (   0.0000000  -0.2142857   0.2142857), wk =   0.0014577
        k(  255) = (   0.2142857   0.0000000  -0.2142857), wk =   0.0014577
        k(  256) = (  -0.2142857   0.0000000  -0.2142857), wk =   0.0014577
        k(  257) = (   0.2142857  -0.2142857   0.0000000), wk =   0.0014577
        k(  258) = (  -0.2142857  -0.2142857   0.0000000), wk =   0.0014577
        k(  259) = (   0.0000000  -0.2142857   0.2857143), wk =   0.0014577
        k(  260) = (   0.2142857   0.0000000  -0.2857143), wk =   0.0014577
        k(  261) = (  -0.2142857   0.0000000  -0.2857143), wk =   0.0014577
        k(  262) = (   0.2857143  -0.2142857   0.0000000), wk =   0.0014577
        k(  263) = (  -0.2857143  -0.2142857   0.0000000), wk =   0.0014577
        k(  264) = (   0.0000000   0.2857143   0.2142857), wk =   0.0014577
        k(  265) = (   0.0000000   0.2857143  -0.2142857), wk =   0.0014577
        k(  266) = (   0.2142857   0.2857143   0.0000000), wk =   0.0014577
        k(  267) = (  -0.2142857   0.2857143   0.0000000), wk =   0.0014577
        k(  268) = (   0.2857143   0.0000000   0.2142857), wk =   0.0014577
        k(  269) = (   0.2857143   0.0000000  -0.2142857), wk =   0.0014577
        k(  270) = (   0.0000000  -0.2142857   0.3571429), wk =   0.0014577
        k(  271) = (   0.2142857   0.0000000  -0.3571429), wk =   0.0014577
        k(  272) = (  -0.2142857   0.0000000  -0.3571429), wk =   0.0014577
        k(  273) = (   0.3571429  -0.2142857   0.0000000), wk =   0.0014577
        k(  274) = (  -0.3571429  -0.2142857   0.0000000), wk =   0.0014577
        k(  275) = (   0.0000000   0.3571429   0.2142857), wk =   0.0014577
        k(  276) = (   0.0000000   0.3571429  -0.2142857), wk =   0.0014577
        k(  277) = (   0.2142857   0.3571429   0.0000000), wk =   0.0014577
        k(  278) = (  -0.2142857   0.3571429   0.0000000), wk =   0.0014577
        k(  279) = (   0.3571429   0.0000000   0.2142857), wk =   0.0014577
        k(  280) = (   0.3571429   0.0000000  -0.2142857), wk =   0.0014577
        k(  281) = (   0.0000000  -0.2142857   0.4285714), wk =   0.0014577
        k(  282) = (   0.2142857   0.0000000  -0.4285714), wk =   0.0014577
        k(  283) = (  -0.2142857   0.0000000  -0.4285714), wk =   0.0014577
        k(  284) = (   0.4285714  -0.2142857   0.0000000), wk =   0.0014577
        k(  285) = (  -0.4285714  -0.2142857   0.0000000), wk =   0.0014577
        k(  286) = (   0.0000000   0.4285714   0.2142857), wk =   0.0014577
        k(  287) = (   0.0000000   0.4285714  -0.2142857), wk =   0.0014577
        k(  288) = (   0.2142857   0.4285714   0.0000000), wk =   0.0014577
        k(  289) = (  -0.2142857   0.4285714   0.0000000), wk =   0.0014577
        k(  290) = (   0.4285714   0.0000000   0.2142857), wk =   0.0014577
        k(  291) = (   0.4285714   0.0000000  -0.2142857), wk =   0.0014577
        k(  292) = (   0.2142857   0.0000000   0.5000000), wk =   0.0014577
        k(  293) = (  -0.5000000  -0.2142857   0.0000000), wk =   0.0014577
        k(  294) = (   0.0000000  -0.5000000   0.2142857), wk =   0.0014577
        k(  295) = (   0.2142857  -0.5000000   0.0000000), wk =   0.0014577
        k(  296) = (  -0.5000000   0.0000000   0.2142857), wk =   0.0014577
        k(  297) = (   0.0000000  -0.2857143   0.2857143), wk =   0.0014577
        k(  298) = (   0.2857143   0.0000000  -0.2857143), wk =   0.0014577
        k(  299) = (  -0.2857143   0.0000000  -0.2857143), wk =   0.0014577
        k(  300) = (   0.2857143  -0.2857143   0.0000000), wk =   0.0014577
        k(  301) = (  -0.2857143  -0.2857143   0.0000000), wk =   0.0014577
        k(  302) = (   0.0000000  -0.2857143   0.3571429), wk =   0.0014577
        k(  303) = (   0.2857143   0.0000000  -0.3571429), wk =   0.0014577
        k(  304) = (  -0.2857143   0.0000000  -0.3571429), wk =   0.0014577
        k(  305) = (   0.3571429  -0.2857143   0.0000000), wk =   0.0014577
        k(  306) = (  -0.3571429  -0.2857143   0.0000000), wk =   0.0014577
        k(  307) = (   0.0000000   0.3571429   0.2857143), wk =   0.0014577
        k(  308) = (   0.0000000   0.3571429  -0.2857143), wk =   0.0014577
        k(  309) = (   0.2857143   0.3571429   0.0000000), wk =   0.0014577
        k(  310) = (  -0.2857143   0.3571429   0.0000000), wk =   0.0014577
        k(  311) = (   0.3571429   0.0000000   0.2857143), wk =   0.0014577
        k(  312) = (   0.3571429   0.0000000  -0.2857143), wk =   0.0014577
        k(  313) = (   0.0000000  -0.2857143   0.4285714), wk =   0.0014577
        k(  314) = (   0.2857143   0.0000000  -0.4285714), wk =   0.0014577
        k(  315) = (  -0.2857143   0.0000000  -0.4285714), wk =   0.0014577
        k(  316) = (   0.4285714  -0.2857143   0.0000000), wk =   0.0014577
        k(  317) = (  -0.4285714  -0.2857143   0.0000000), wk =   0.0014577
        k(  318) = (   0.0000000   0.4285714   0.2857143), wk =   0.0014577
        k(  319) = (   0.0000000   0.4285714  -0.2857143), wk =   0.0014577
        k(  320) = (   0.2857143   0.4285714   0.0000000), wk =   0.0014577
        k(  321) = (  -0.2857143   0.4285714   0.0000000), wk =   0.0014577
        k(  322) = (   0.4285714   0.0000000   0.2857143), wk =   0.0014577
        k(  323) = (   0.4285714   0.0000000  -0.2857143), wk =   0.0014577
        k(  324) = (   0.2857143   0.0000000   0.5000000), wk =   0.0014577
        k(  325) = (  -0.5000000  -0.2857143   0.0000000), wk =   0.0014577
        k(  326) = (   0.0000000  -0.5000000   0.2857143), wk =   0.0014577
        k(  327) = (   0.2857143  -0.5000000   0.0000000), wk =   0.0014577
        k(  328) = (  -0.5000000   0.0000000   0.2857143), wk =   0.0014577
        k(  329) = (   0.0000000  -0.3571429   0.3571429), wk =   0.0014577
        k(  330) = (   0.3571429   0.0000000  -0.3571429), wk =   0.0014577
        k(  331) = (  -0.3571429   0.0000000  -0.3571429), wk =   0.0014577
        k(  332) = (   0.3571429  -0.3571429   0.0000000), wk =   0.0014577
        k(  333) = (  -0.3571429  -0.3571429   0.0000000), wk =   0.0014577
        k(  334) = (   0.0000000  -0.3571429   0.4285714), wk =   0.0014577
        k(  335) = (   0.3571429   0.0000000  -0.4285714), wk =   0.0014577
        k(  336) = (  -0.3571429   0.0000000  -0.4285714), wk =   0.0014577
        k(  337) = (   0.4285714  -0.3571429   0.0000000), wk =   0.0014577
        k(  338) = (  -0.4285714  -0.3571429   0.0000000), wk =   0.0014577
        k(  339) = (   0.0000000   0.4285714   0.3571429), wk =   0.0014577
        k(  340) = (   0.0000000   0.4285714  -0.3571429), wk =   0.0014577
        k(  341) = (   0.3571429   0.4285714   0.0000000), wk =   0.0014577
        k(  342) = (  -0.3571429   0.4285714   0.0000000), wk =   0.0014577
        k(  343) = (   0.4285714   0.0000000   0.3571429), wk =   0.0014577
        k(  344) = (   0.4285714   0.0000000  -0.3571429), wk =   0.0014577
        k(  345) = (   0.3571429   0.0000000   0.5000000), wk =   0.0014577
        k(  346) = (  -0.5000000  -0.3571429   0.0000000), wk =   0.0014577
        k(  347) = (   0.0000000  -0.5000000   0.3571429), wk =   0.0014577
        k(  348) = (   0.3571429  -0.5000000   0.0000000), wk =   0.0014577
        k(  349) = (  -0.5000000   0.0000000   0.3571429), wk =   0.0014577
        k(  350) = (   0.0000000  -0.4285714   0.4285714), wk =   0.0014577
        k(  351) = (   0.4285714   0.0000000  -0.4285714), wk =   0.0014577
        k(  352) = (  -0.4285714   0.0000000  -0.4285714), wk =   0.0014577
        k(  353) = (   0.4285714  -0.4285714   0.0000000), wk =   0.0014577
        k(  354) = (  -0.4285714  -0.4285714   0.0000000), wk =   0.0014577
        k(  355) = (   0.4285714   0.0000000   0.5000000), wk =   0.0014577
        k(  356) = (  -0.5000000  -0.4285714   0.0000000), wk =   0.0014577
        k(  357) = (   0.0000000  -0.5000000   0.4285714), wk =   0.0014577
        k(  358) = (   0.4285714  -0.5000000   0.0000000), wk =   0.0014577
        k(  359) = (  -0.5000000   0.0000000   0.4285714), wk =   0.0014577
        k(  360) = (  -0.5000000   0.0000000   0.5000000), wk =   0.0007289
        k(  361) = (  -0.5000000   0.5000000   0.0000000), wk =   0.0007289
        k(  362) = (  -0.0714286  -0.0714286   0.0714286), wk =   0.0014577
        k(  363) = (  -0.0714286   0.0714286  -0.0714286), wk =   0.0014577
        k(  364) = (   0.0714286  -0.0714286  -0.0714286), wk =   0.0014577
        k(  365) = (  -0.0714286  -0.0714286   0.1428571), wk =   0.0014577
        k(  366) = (  -0.0714286   0.0714286  -0.1428571), wk =   0.0014577
        k(  367) = (   0.0714286  -0.0714286  -0.1428571), wk =   0.0014577
        k(  368) = (   0.1428571  -0.0714286   0.0714286), wk =   0.0014577
        k(  369) = (  -0.1428571  -0.0714286  -0.0714286), wk =   0.0014577
        k(  370) = (   0.1428571   0.0714286  -0.0714286), wk =   0.0014577
        k(  371) = (  -0.1428571   0.0714286   0.0714286), wk =   0.0014577
        k(  372) = (  -0.0714286   0.1428571   0.0714286), wk =   0.0014577
        k(  373) = (  -0.0714286  -0.1428571  -0.0714286), wk =   0.0014577
        k(  374) = (   0.0714286   0.1428571  -0.0714286), wk =   0.0014577
        k(  375) = (   0.0714286  -0.1428571   0.0714286), wk =   0.0014577
        k(  376) = (  -0.0714286  -0.0714286   0.2142857), wk =   0.0014577
        k(  377) = (  -0.0714286   0.0714286  -0.2142857), wk =   0.0014577
        k(  378) = (   0.0714286  -0.0714286  -0.2142857), wk =   0.0014577
        k(  379) = (   0.2142857  -0.0714286   0.0714286), wk =   0.0014577
        k(  380) = (  -0.2142857  -0.0714286  -0.0714286), wk =   0.0014577
        k(  381) = (   0.2142857   0.0714286  -0.0714286), wk =   0.0014577
        k(  382) = (  -0.2142857   0.0714286   0.0714286), wk =   0.0014577
        k(  383) = (  -0.0714286   0.2142857   0.0714286), wk =   0.0014577
        k(  384) = (  -0.0714286  -0.2142857  -0.0714286), wk =   0.0014577
        k(  385) = (   0.0714286   0.2142857  -0.0714286), wk =   0.0014577
        k(  386) = (   0.0714286  -0.2142857   0.0714286), wk =   0.0014577
        k(  387) = (  -0.0714286  -0.0714286   0.2857143), wk =   0.0014577
        k(  388) = (  -0.0714286   0.0714286  -0.2857143), wk =   0.0014577
        k(  389) = (   0.0714286  -0.0714286  -0.2857143), wk =   0.0014577
        k(  390) = (   0.2857143  -0.0714286   0.0714286), wk =   0.0014577
        k(  391) = (  -0.2857143  -0.0714286  -0.0714286), wk =   0.0014577
        k(  392) = (   0.2857143   0.0714286  -0.0714286), wk =   0.0014577
        k(  393) = (  -0.2857143   0.0714286   0.0714286), wk =   0.0014577
        k(  394) = (  -0.0714286   0.2857143   0.0714286), wk =   0.0014577
        k(  395) = (  -0.0714286  -0.2857143  -0.0714286), wk =   0.0014577
        k(  396) = (   0.0714286   0.2857143  -0.0714286), wk =   0.0014577
        k(  397) = (   0.0714286  -0.2857143   0.0714286), wk =   0.0014577
        k(  398) = (  -0.0714286  -0.0714286   0.3571429), wk =   0.0014577
        k(  399) = (  -0.0714286   0.0714286  -0.3571429), wk =   0.0014577
        k(  400) = (   0.0714286  -0.0714286  -0.3571429), wk =   0.0014577
        k(  401) = (   0.3571429  -0.0714286   0.0714286), wk =   0.0014577
        k(  402) = (  -0.3571429  -0.0714286  -0.0714286), wk =   0.0014577
        k(  403) = (   0.3571429   0.0714286  -0.0714286), wk =   0.0014577
        k(  404) = (  -0.3571429   0.0714286   0.0714286), wk =   0.0014577
        k(  405) = (  -0.0714286   0.3571429   0.0714286), wk =   0.0014577
        k(  406) = (  -0.0714286  -0.3571429  -0.0714286), wk =   0.0014577
        k(  407) = (   0.0714286   0.3571429  -0.0714286), wk =   0.0014577
        k(  408) = (   0.0714286  -0.3571429   0.0714286), wk =   0.0014577
        k(  409) = (  -0.0714286  -0.0714286   0.4285714), wk =   0.0014577
        k(  410) = (  -0.0714286   0.0714286  -0.4285714), wk =   0.0014577
        k(  411) = (   0.0714286  -0.0714286  -0.4285714), wk =   0.0014577
        k(  412) = (   0.4285714  -0.0714286   0.0714286), wk =   0.0014577
        k(  413) = (  -0.4285714  -0.0714286  -0.0714286), wk =   0.0014577
        k(  414) = (   0.4285714   0.0714286  -0.0714286), wk =   0.0014577
        k(  415) = (  -0.4285714   0.0714286   0.0714286), wk =   0.0014577
        k(  416) = (  -0.0714286   0.4285714   0.0714286), wk =   0.0014577
        k(  417) = (  -0.0714286  -0.4285714  -0.0714286), wk =   0.0014577
        k(  418) = (   0.0714286   0.4285714  -0.0714286), wk =   0.0014577
        k(  419) = (   0.0714286  -0.4285714   0.0714286), wk =   0.0014577
        k(  420) = (  -0.0714286   0.0714286   0.5000000), wk =   0.0014577
        k(  421) = (  -0.5000000  -0.0714286   0.0714286), wk =   0.0014577
        k(  422) = (   0.5000000  -0.0714286  -0.0714286), wk =   0.0014577
        k(  423) = (  -0.0714286  -0.5000000   0.0714286), wk =   0.0014577
        k(  424) = (  -0.0714286   0.5000000  -0.0714286), wk =   0.0014577
        k(  425) = (  -0.0714286  -0.1428571   0.1428571), wk =   0.0014577
        k(  426) = (  -0.0714286   0.1428571  -0.1428571), wk =   0.0014577
        k(  427) = (   0.0714286  -0.1428571  -0.1428571), wk =   0.0014577
        k(  428) = (   0.1428571   0.0714286  -0.1428571), wk =   0.0014577
        k(  429) = (  -0.1428571  -0.0714286  -0.1428571), wk =   0.0014577
        k(  430) = (   0.1428571  -0.0714286   0.1428571), wk =   0.0014577
        k(  431) = (  -0.1428571   0.0714286   0.1428571), wk =   0.0014577
        k(  432) = (   0.1428571  -0.1428571   0.0714286), wk =   0.0014577
        k(  433) = (  -0.1428571  -0.1428571  -0.0714286), wk =   0.0014577
        k(  434) = (   0.1428571   0.1428571  -0.0714286), wk =   0.0014577
        k(  435) = (  -0.1428571   0.1428571   0.0714286), wk =   0.0014577
        k(  436) = (  -0.0714286  -0.1428571   0.2142857), wk =   0.0014577
        k(  437) = (  -0.0714286   0.1428571  -0.2142857), wk =   0.0014577
        k(  438) = (   0.0714286  -0.1428571  -0.2142857), wk =   0.0014577
        k(  439) = (   0.1428571   0.0714286  -0.2142857), wk =   0.0014577
        k(  440) = (  -0.1428571  -0.0714286  -0.2142857), wk =   0.0014577
        k(  441) = (   0.1428571  -0.0714286   0.2142857), wk =   0.0014577
        k(  442) = (  -0.1428571   0.0714286   0.2142857), wk =   0.0014577
        k(  443) = (   0.2142857  -0.1428571   0.0714286), wk =   0.0014577
        k(  444) = (  -0.2142857  -0.1428571  -0.0714286), wk =   0.0014577
        k(  445) = (   0.2142857   0.1428571  -0.0714286), wk =   0.0014577
        k(  446) = (  -0.2142857   0.1428571   0.0714286), wk =   0.0014577
        k(  447) = (  -0.0714286   0.2142857   0.1428571), wk =   0.0014577
        k(  448) = (  -0.0714286  -0.2142857  -0.1428571), wk =   0.0014577
        k(  449) = (   0.0714286   0.2142857  -0.1428571), wk =   0.0014577
        k(  450) = (   0.0714286  -0.2142857   0.1428571), wk =   0.0014577
        k(  451) = (   0.1428571   0.2142857   0.0714286), wk =   0.0014577
        k(  452) = (  -0.1428571   0.2142857  -0.0714286), wk =   0.0014577
        k(  453) = (   0.1428571  -0.2142857  -0.0714286), wk =   0.0014577
        k(  454) = (  -0.1428571  -0.2142857   0.0714286), wk =   0.0014577
        k(  455) = (   0.2142857   0.0714286   0.1428571), wk =   0.0014577
        k(  456) = (   0.2142857  -0.0714286  -0.1428571), wk =   0.0014577
        k(  457) = (  -0.2142857  -0.0714286   0.1428571), wk =   0.0014577
        k(  458) = (  -0.2142857   0.0714286  -0.1428571), wk =   0.0014577
        k(  459) = (  -0.0714286  -0.1428571   0.2857143), wk =   0.0014577
        k(  460) = (  -0.0714286   0.1428571  -0.2857143), wk =   0.0014577
        k(  461) = (   0.0714286  -0.1428571  -0.2857143), wk =   0.0014577
        k(  462) = (   0.1428571   0.0714286  -0.2857143), wk =   0.0014577
        k(  463) = (  -0.1428571  -0.0714286  -0.2857143), wk =   0.0014577
        k(  464) = (   0.1428571  -0.0714286   0.2857143), wk =   0.0014577
        k(  465) = (  -0.1428571   0.0714286   0.2857143), wk =   0.0014577
        k(  466) = (   0.2857143  -0.1428571   0.0714286), wk =   0.0014577
        k(  467) = (  -0.2857143  -0.1428571  -0.0714286), wk =   0.0014577
        k(  468) = (   0.2857143   0.1428571  -0.0714286), wk =   0.0014577
        k(  469) = (  -0.2857143   0.1428571   0.0714286), wk =   0.0014577
        k(  470) = (  -0.0714286   0.2857143   0.1428571), wk =   0.0014577
        k(  471) = (  -0.0714286  -0.2857143  -0.1428571), wk =   0.0014577
        k(  472) = (   0.0714286   0.2857143  -0.1428571), wk =   0.0014577
        k(  473) = (   0.0714286  -0.2857143   0.1428571), wk =   0.0014577
        k(  474) = (   0.1428571   0.2857143   0.0714286), wk =   0.0014577
        k(  475) = (  -0.1428571   0.2857143  -0.0714286), wk =   0.0014577
        k(  476) = (   0.1428571  -0.2857143  -0.0714286), wk =   0.0014577
        k(  477) = (  -0.1428571  -0.2857143   0.0714286), wk =   0.0014577
        k(  478) = (   0.2857143   0.0714286   0.1428571), wk =   0.0014577
        k(  479) = (   0.2857143  -0.0714286  -0.1428571), wk =   0.0014577
        k(  480) = (  -0.2857143  -0.0714286   0.1428571), wk =   0.0014577
        k(  481) = (  -0.2857143   0.0714286  -0.1428571), wk =   0.0014577
        k(  482) = (  -0.0714286  -0.1428571   0.3571429), wk =   0.0014577
        k(  483) = (  -0.0714286   0.1428571  -0.3571429), wk =   0.0014577
        k(  484) = (   0.0714286  -0.1428571  -0.3571429), wk =   0.0014577
        k(  485) = (   0.1428571   0.0714286  -0.3571429), wk =   0.0014577
        k(  486) = (  -0.1428571  -0.0714286  -0.3571429), wk =   0.0014577
        k(  487) = (   0.1428571  -0.0714286   0.3571429), wk =   0.0014577
        k(  488) = (  -0.1428571   0.0714286   0.3571429), wk =   0.0014577
        k(  489) = (   0.3571429  -0.1428571   0.0714286), wk =   0.0014577
        k(  490) = (  -0.3571429  -0.1428571  -0.0714286), wk =   0.0014577
        k(  491) = (   0.3571429   0.1428571  -0.0714286), wk =   0.0014577
        k(  492) = (  -0.3571429   0.1428571   0.0714286), wk =   0.0014577
        k(  493) = (  -0.0714286   0.3571429   0.1428571), wk =   0.0014577
        k(  494) = (  -0.0714286  -0.3571429  -0.1428571), wk =   0.0014577
        k(  495) = (   0.0714286   0.3571429  -0.1428571), wk =   0.0014577
        k(  496) = (   0.0714286  -0.3571429   0.1428571), wk =   0.0014577
        k(  497) = (   0.1428571   0.3571429   0.0714286), wk =   0.0014577
        k(  498) = (  -0.1428571   0.3571429  -0.0714286), wk =   0.0014577
        k(  499) = (   0.1428571  -0.3571429  -0.0714286), wk =   0.0014577
        k(  500) = (  -0.1428571  -0.3571429   0.0714286), wk =   0.0014577
        k(  501) = (   0.3571429   0.0714286   0.1428571), wk =   0.0014577
        k(  502) = (   0.3571429  -0.0714286  -0.1428571), wk =   0.0014577
        k(  503) = (  -0.3571429  -0.0714286   0.1428571), wk =   0.0014577
        k(  504) = (  -0.3571429   0.0714286  -0.1428571), wk =   0.0014577
        k(  505) = (  -0.0714286  -0.1428571   0.4285714), wk =   0.0014577
        k(  506) = (  -0.0714286   0.1428571  -0.4285714), wk =   0.0014577
        k(  507) = (   0.0714286  -0.1428571  -0.4285714), wk =   0.0014577
        k(  508) = (   0.1428571   0.0714286  -0.4285714), wk =   0.0014577
        k(  509) = (  -0.1428571  -0.0714286  -0.4285714), wk =   0.0014577
        k(  510) = (   0.1428571  -0.0714286   0.4285714), wk =   0.0014577
        k(  511) = (  -0.1428571   0.0714286   0.4285714), wk =   0.0014577
        k(  512) = (   0.4285714  -0.1428571   0.0714286), wk =   0.0014577
        k(  513) = (  -0.4285714  -0.1428571  -0.0714286), wk =   0.0014577
        k(  514) = (   0.4285714   0.1428571  -0.0714286), wk =   0.0014577
        k(  515) = (  -0.4285714   0.1428571   0.0714286), wk =   0.0014577
        k(  516) = (  -0.0714286   0.4285714   0.1428571), wk =   0.0014577
        k(  517) = (  -0.0714286  -0.4285714  -0.1428571), wk =   0.0014577
        k(  518) = (   0.0714286   0.4285714  -0.1428571), wk =   0.0014577
        k(  519) = (   0.0714286  -0.4285714   0.1428571), wk =   0.0014577
        k(  520) = (   0.1428571   0.4285714   0.0714286), wk =   0.0014577
        k(  521) = (  -0.1428571   0.4285714  -0.0714286), wk =   0.0014577
        k(  522) = (   0.1428571  -0.4285714  -0.0714286), wk =   0.0014577
        k(  523) = (  -0.1428571  -0.4285714   0.0714286), wk =   0.0014577
        k(  524) = (   0.4285714   0.0714286   0.1428571), wk =   0.0014577
        k(  525) = (   0.4285714  -0.0714286  -0.1428571), wk =   0.0014577
        k(  526) = (  -0.4285714  -0.0714286   0.1428571), wk =   0.0014577
        k(  527) = (  -0.4285714   0.0714286  -0.1428571), wk =   0.0014577
        k(  528) = (  -0.0714286   0.1428571   0.5000000), wk =   0.0014577
        k(  529) = (   0.1428571   0.0714286   0.5000000), wk =   0.0014577
        k(  530) = (   0.1428571  -0.0714286  -0.5000000), wk =   0.0014577
        k(  531) = (  -0.5000000  -0.1428571   0.0714286), wk =   0.0014577
        k(  532) = (   0.5000000  -0.1428571  -0.0714286), wk =   0.0014577
        k(  533) = (  -0.0714286  -0.5000000   0.1428571), wk =   0.0014577
        k(  534) = (  -0.0714286   0.5000000  -0.1428571), wk =   0.0014577
        k(  535) = (   0.1428571  -0.5000000   0.0714286), wk =   0.0014577
        k(  536) = (   0.1428571   0.5000000  -0.0714286), wk =   0.0014577
        k(  537) = (  -0.5000000   0.0714286   0.1428571), wk =   0.0014577
        k(  538) = (   0.5000000  -0.0714286   0.1428571), wk =   0.0014577
        k(  539) = (  -0.0714286  -0.2142857   0.2142857), wk =   0.0014577
        k(  540) = (  -0.0714286   0.2142857  -0.2142857), wk =   0.0014577
        k(  541) = (   0.0714286  -0.2142857  -0.2142857), wk =   0.0014577
        k(  542) = (   0.2142857   0.0714286  -0.2142857), wk =   0.0014577
        k(  543) = (  -0.2142857  -0.0714286  -0.2142857), wk =   0.0014577
        k(  544) = (   0.2142857  -0.0714286   0.2142857), wk =   0.0014577
        k(  545) = (  -0.2142857   0.0714286   0.2142857), wk =   0.0014577
        k(  546) = (   0.2142857  -0.2142857   0.0714286), wk =   0.0014577
        k(  547) = (  -0.2142857  -0.2142857  -0.0714286), wk =   0.0014577
        k(  548) = (   0.2142857   0.2142857  -0.0714286), wk =   0.0014577
        k(  549) = (  -0.2142857   0.2142857   0.0714286), wk =   0.0014577
        k(  550) = (  -0.0714286  -0.2142857   0.2857143), wk =   0.0014577
        k(  551) = (  -0.0714286   0.2142857  -0.2857143), wk =   0.0014577
        k(  552) = (   0.0714286  -0.2142857  -0.2857143), wk =   0.0014577
        k(  553) = (   0.2142857   0.0714286  -0.2857143), wk =   0.0014577
        k(  554) = (  -0.2142857  -0.0714286  -0.2857143), wk =   0.0014577
        k(  555) = (   0.2142857  -0.0714286   0.2857143), wk =   0.0014577
        k(  556) = (  -0.2142857   0.0714286   0.2857143), wk =   0.0014577
        k(  557) = (   0.2857143  -0.2142857   0.0714286), wk =   0.0014577
        k(  558) = (  -0.2857143  -0.2142857  -0.0714286), wk =   0.0014577
        k(  559) = (   0.2857143   0.2142857  -0.0714286), wk =   0.0014577
        k(  560) = (  -0.2857143   0.2142857   0.0714286), wk =   0.0014577
        k(  561) = (  -0.0714286   0.2857143   0.2142857), wk =   0.0014577
        k(  562) = (  -0.0714286  -0.2857143  -0.2142857), wk =   0.0014577
        k(  563) = (   0.0714286   0.2857143  -0.2142857), wk =   0.0014577
        k(  564) = (   0.0714286  -0.2857143   0.2142857), wk =   0.0014577
        k(  565) = (   0.2142857   0.2857143   0.0714286), wk =   0.0014577
        k(  566) = (  -0.2142857   0.2857143  -0.0714286), wk =   0.0014577
        k(  567) = (   0.2142857  -0.2857143  -0.0714286), wk =   0.0014577
        k(  568) = (  -0.2142857  -0.2857143   0.0714286), wk =   0.0014577
        k(  569) = (   0.2857143   0.0714286   0.2142857), wk =   0.0014577
        k(  570) = (   0.2857143  -0.0714286  -0.2142857), wk =   0.0014577
        k(  571) = (  -0.2857143  -0.0714286   0.2142857), wk =   0.0014577
        k(  572) = (  -0.2857143   0.0714286  -0.2142857), wk =   0.0014577
        k(  573) = (  -0.0714286  -0.2142857   0.3571429), wk =   0.0014577
        k(  574) = (  -0.0714286   0.2142857  -0.3571429), wk =   0.0014577
        k(  575) = (   0.0714286  -0.2142857  -0.3571429), wk =   0.0014577
        k(  576) = (   0.2142857   0.0714286  -0.3571429), wk =   0.0014577
        k(  577) = (  -0.2142857  -0.0714286  -0.3571429), wk =   0.0014577
        k(  578) = (   0.2142857  -0.0714286   0.3571429), wk =   0.0014577
        k(  579) = (  -0.2142857   0.0714286   0.3571429), wk =   0.0014577
        k(  580) = (   0.3571429  -0.2142857   0.0714286), wk =   0.0014577
        k(  581) = (  -0.3571429  -0.2142857  -0.0714286), wk =   0.0014577
        k(  582) = (   0.3571429   0.2142857  -0.0714286), wk =   0.0014577
        k(  583) = (  -0.3571429   0.2142857   0.0714286), wk =   0.0014577
        k(  584) = (  -0.0714286   0.3571429   0.2142857), wk =   0.0014577
        k(  585) = (  -0.0714286  -0.3571429  -0.2142857), wk =   0.0014577
        k(  586) = (   0.0714286   0.3571429  -0.2142857), wk =   0.0014577
        k(  587) = (   0.0714286  -0.3571429   0.2142857), wk =   0.0014577
        k(  588) = (   0.2142857   0.3571429   0.0714286), wk =   0.0014577
        k(  589) = (  -0.2142857   0.3571429  -0.0714286), wk =   0.0014577
        k(  590) = (   0.2142857  -0.3571429  -0.0714286), wk =   0.0014577
        k(  591) = (  -0.2142857  -0.3571429   0.0714286), wk =   0.0014577
        k(  592) = (   0.3571429   0.0714286   0.2142857), wk =   0.0014577
        k(  593) = (   0.3571429  -0.0714286  -0.2142857), wk =   0.0014577
        k(  594) = (  -0.3571429  -0.0714286   0.2142857), wk =   0.0014577
        k(  595) = (  -0.3571429   0.0714286  -0.2142857), wk =   0.0014577
        k(  596) = (  -0.0714286  -0.2142857   0.4285714), wk =   0.0014577
        k(  597) = (  -0.0714286   0.2142857  -0.4285714), wk =   0.0014577
        k(  598) = (   0.0714286  -0.2142857  -0.4285714), wk =   0.0014577
        k(  599) = (   0.2142857   0.0714286  -0.4285714), wk =   0.0014577
        k(  600) = (  -0.2142857  -0.0714286  -0.4285714), wk =   0.0014577
        k(  601) = (   0.2142857  -0.0714286   0.4285714), wk =   0.0014577
        k(  602) = (  -0.2142857   0.0714286   0.4285714), wk =   0.0014577
        k(  603) = (   0.4285714  -0.2142857   0.0714286), wk =   0.0014577
        k(  604) = (  -0.4285714  -0.2142857  -0.0714286), wk =   0.0014577
        k(  605) = (   0.4285714   0.2142857  -0.0714286), wk =   0.0014577
        k(  606) = (  -0.4285714   0.2142857   0.0714286), wk =   0.0014577
        k(  607) = (  -0.0714286   0.4285714   0.2142857), wk =   0.0014577
        k(  608) = (  -0.0714286  -0.4285714  -0.2142857), wk =   0.0014577
        k(  609) = (   0.0714286   0.4285714  -0.2142857), wk =   0.0014577
        k(  610) = (   0.0714286  -0.4285714   0.2142857), wk =   0.0014577
        k(  611) = (   0.2142857   0.4285714   0.0714286), wk =   0.0014577
        k(  612) = (  -0.2142857   0.4285714  -0.0714286), wk =   0.0014577
        k(  613) = (   0.2142857  -0.4285714  -0.0714286), wk =   0.0014577
        k(  614) = (  -0.2142857  -0.4285714   0.0714286), wk =   0.0014577
        k(  615) = (   0.4285714   0.0714286   0.2142857), wk =   0.0014577
        k(  616) = (   0.4285714  -0.0714286  -0.2142857), wk =   0.0014577
        k(  617) = (  -0.4285714  -0.0714286   0.2142857), wk =   0.0014577
        k(  618) = (  -0.4285714   0.0714286  -0.2142857), wk =   0.0014577
        k(  619) = (  -0.0714286   0.2142857   0.5000000), wk =   0.0014577
        k(  620) = (   0.2142857   0.0714286   0.5000000), wk =   0.0014577
        k(  621) = (   0.2142857  -0.0714286  -0.5000000), wk =   0.0014577
        k(  622) = (  -0.5000000  -0.2142857   0.0714286), wk =   0.0014577
        k(  623) = (   0.5000000  -0.2142857  -0.0714286), wk =   0.0014577
        k(  624) = (  -0.0714286  -0.5000000   0.2142857), wk =   0.0014577
        k(  625) = (  -0.0714286   0.5000000  -0.2142857), wk =   0.0014577
        k(  626) = (   0.2142857  -0.5000000   0.0714286), wk =   0.0014577
        k(  627) = (   0.2142857   0.5000000  -0.0714286), wk =   0.0014577
        k(  628) = (  -0.5000000   0.0714286   0.2142857), wk =   0.0014577
        k(  629) = (   0.5000000  -0.0714286   0.2142857), wk =   0.0014577
        k(  630) = (  -0.0714286  -0.2857143   0.2857143), wk =   0.0014577
        k(  631) = (  -0.0714286   0.2857143  -0.2857143), wk =   0.0014577
        k(  632) = (   0.0714286  -0.2857143  -0.2857143), wk =   0.0014577
        k(  633) = (   0.2857143   0.0714286  -0.2857143), wk =   0.0014577
        k(  634) = (  -0.2857143  -0.0714286  -0.2857143), wk =   0.0014577
        k(  635) = (   0.2857143  -0.0714286   0.2857143), wk =   0.0014577
        k(  636) = (  -0.2857143   0.0714286   0.2857143), wk =   0.0014577
        k(  637) = (   0.2857143  -0.2857143   0.0714286), wk =   0.0014577
        k(  638) = (  -0.2857143  -0.2857143  -0.0714286), wk =   0.0014577
        k(  639) = (   0.2857143   0.2857143  -0.0714286), wk =   0.0014577
        k(  640) = (  -0.2857143   0.2857143   0.0714286), wk =   0.0014577
        k(  641) = (  -0.0714286  -0.2857143   0.3571429), wk =   0.0014577
        k(  642) = (  -0.0714286   0.2857143  -0.3571429), wk =   0.0014577
        k(  643) = (   0.0714286  -0.2857143  -0.3571429), wk =   0.0014577
        k(  644) = (   0.2857143   0.0714286  -0.3571429), wk =   0.0014577
        k(  645) = (  -0.2857143  -0.0714286  -0.3571429), wk =   0.0014577
        k(  646) = (   0.2857143  -0.0714286   0.3571429), wk =   0.0014577
        k(  647) = (  -0.2857143   0.0714286   0.3571429), wk =   0.0014577
        k(  648) = (   0.3571429  -0.2857143   0.0714286), wk =   0.0014577
        k(  649) = (  -0.3571429  -0.2857143  -0.0714286), wk =   0.0014577
        k(  650) = (   0.3571429   0.2857143  -0.0714286), wk =   0.0014577
        k(  651) = (  -0.3571429   0.2857143   0.0714286), wk =   0.0014577
        k(  652) = (  -0.0714286   0.3571429   0.2857143), wk =   0.0014577
        k(  653) = (  -0.0714286  -0.3571429  -0.2857143), wk =   0.0014577
        k(  654) = (   0.0714286   0.3571429  -0.2857143), wk =   0.0014577
        k(  655) = (   0.0714286  -0.3571429   0.2857143), wk =   0.0014577
        k(  656) = (   0.2857143   0.3571429   0.0714286), wk =   0.0014577
        k(  657) = (  -0.2857143   0.3571429  -0.0714286), wk =   0.0014577
        k(  658) = (   0.2857143  -0.3571429  -0.0714286), wk =   0.0014577
        k(  659) = (  -0.2857143  -0.3571429   0.0714286), wk =   0.0014577
        k(  660) = (   0.3571429   0.0714286   0.2857143), wk =   0.0014577
        k(  661) = (   0.3571429  -0.0714286  -0.2857143), wk =   0.0014577
        k(  662) = (  -0.3571429  -0.0714286   0.2857143), wk =   0.0014577
        k(  663) = (  -0.3571429   0.0714286  -0.2857143), wk =   0.0014577
        k(  664) = (  -0.0714286  -0.2857143   0.4285714), wk =   0.0014577
        k(  665) = (  -0.0714286   0.2857143  -0.4285714), wk =   0.0014577
        k(  666) = (   0.0714286  -0.2857143  -0.4285714), wk =   0.0014577
        k(  667) = (   0.2857143   0.0714286  -0.4285714), wk =   0.0014577
        k(  668) = (  -0.2857143  -0.0714286  -0.4285714), wk =   0.0014577
        k(  669) = (   0.2857143  -0.0714286   0.4285714), wk =   0.0014577
        k(  670) = (  -0.2857143   0.0714286   0.4285714), wk =   0.0014577
        k(  671) = (   0.4285714  -0.2857143   0.0714286), wk =   0.0014577
        k(  672) = (  -0.4285714  -0.2857143  -0.0714286), wk =   0.0014577
        k(  673) = (   0.4285714   0.2857143  -0.0714286), wk =   0.0014577
        k(  674) = (  -0.4285714   0.2857143   0.0714286), wk =   0.0014577
        k(  675) = (  -0.0714286   0.4285714   0.2857143), wk =   0.0014577
        k(  676) = (  -0.0714286  -0.4285714  -0.2857143), wk =   0.0014577
        k(  677) = (   0.0714286   0.4285714  -0.2857143), wk =   0.0014577
        k(  678) = (   0.0714286  -0.4285714   0.2857143), wk =   0.0014577
        k(  679) = (   0.2857143   0.4285714   0.0714286), wk =   0.0014577
        k(  680) = (  -0.2857143   0.4285714  -0.0714286), wk =   0.0014577
        k(  681) = (   0.2857143  -0.4285714  -0.0714286), wk =   0.0014577
        k(  682) = (  -0.2857143  -0.4285714   0.0714286), wk =   0.0014577
        k(  683) = (   0.4285714   0.0714286   0.2857143), wk =   0.0014577
        k(  684) = (   0.4285714  -0.0714286  -0.2857143), wk =   0.0014577
        k(  685) = (  -0.4285714  -0.0714286   0.2857143), wk =   0.0014577
        k(  686) = (  -0.4285714   0.0714286  -0.2857143), wk =   0.0014577
        k(  687) = (  -0.0714286   0.2857143   0.5000000), wk =   0.0014577
        k(  688) = (   0.2857143   0.0714286   0.5000000), wk =   0.0014577
        k(  689) = (   0.2857143  -0.0714286  -0.5000000), wk =   0.0014577
        k(  690) = (  -0.5000000  -0.2857143   0.0714286), wk =   0.0014577
        k(  691) = (   0.5000000  -0.2857143  -0.0714286), wk =   0.0014577
        k(  692) = (  -0.0714286  -0.5000000   0.2857143), wk =   0.0014577
        k(  693) = (  -0.0714286   0.5000000  -0.2857143), wk =   0.0014577
        k(  694) = (   0.2857143  -0.5000000   0.0714286), wk =   0.0014577
        k(  695) = (   0.2857143   0.5000000  -0.0714286), wk =   0.0014577
        k(  696) = (  -0.5000000   0.0714286   0.2857143), wk =   0.0014577
        k(  697) = (   0.5000000  -0.0714286   0.2857143), wk =   0.0014577
        k(  698) = (  -0.0714286  -0.3571429   0.3571429), wk =   0.0014577
        k(  699) = (  -0.0714286   0.3571429  -0.3571429), wk =   0.0014577
        k(  700) = (   0.0714286  -0.3571429  -0.3571429), wk =   0.0014577
        k(  701) = (   0.3571429   0.0714286  -0.3571429), wk =   0.0014577
        k(  702) = (  -0.3571429  -0.0714286  -0.3571429), wk =   0.0014577
        k(  703) = (   0.3571429  -0.0714286   0.3571429), wk =   0.0014577
        k(  704) = (  -0.3571429   0.0714286   0.3571429), wk =   0.0014577
        k(  705) = (   0.3571429  -0.3571429   0.0714286), wk =   0.0014577
        k(  706) = (  -0.3571429  -0.3571429  -0.0714286), wk =   0.0014577
        k(  707) = (   0.3571429   0.3571429  -0.0714286), wk =   0.0014577
        k(  708) = (  -0.3571429   0.3571429   0.0714286), wk =   0.0014577
        k(  709) = (  -0.0714286  -0.3571429   0.4285714), wk =   0.0014577
        k(  710) = (  -0.0714286   0.3571429  -0.4285714), wk =   0.0014577
        k(  711) = (   0.0714286  -0.3571429  -0.4285714), wk =   0.0014577
        k(  712) = (   0.3571429   0.0714286  -0.4285714), wk =   0.0014577
        k(  713) = (  -0.3571429  -0.0714286  -0.4285714), wk =   0.0014577
        k(  714) = (   0.3571429  -0.0714286   0.4285714), wk =   0.0014577
        k(  715) = (  -0.3571429   0.0714286   0.4285714), wk =   0.0014577
        k(  716) = (   0.4285714  -0.3571429   0.0714286), wk =   0.0014577
        k(  717) = (  -0.4285714  -0.3571429  -0.0714286), wk =   0.0014577
        k(  718) = (   0.4285714   0.3571429  -0.0714286), wk =   0.0014577
        k(  719) = (  -0.4285714   0.3571429   0.0714286), wk =   0.0014577
        k(  720) = (  -0.0714286   0.4285714   0.3571429), wk =   0.0014577
        k(  721) = (  -0.0714286  -0.4285714  -0.3571429), wk =   0.0014577
        k(  722) = (   0.0714286   0.4285714  -0.3571429), wk =   0.0014577
        k(  723) = (   0.0714286  -0.4285714   0.3571429), wk =   0.0014577
        k(  724) = (   0.3571429   0.4285714   0.0714286), wk =   0.0014577
        k(  725) = (  -0.3571429   0.4285714  -0.0714286), wk =   0.0014577
        k(  726) = (   0.3571429  -0.4285714  -0.0714286), wk =   0.0014577
        k(  727) = (  -0.3571429  -0.4285714   0.0714286), wk =   0.0014577
        k(  728) = (   0.4285714   0.0714286   0.3571429), wk =   0.0014577
        k(  729) = (   0.4285714  -0.0714286  -0.3571429), wk =   0.0014577
        k(  730) = (  -0.4285714  -0.0714286   0.3571429), wk =   0.0014577
        k(  731) = (  -0.4285714   0.0714286  -0.3571429), wk =   0.0014577
        k(  732) = (  -0.0714286   0.3571429   0.5000000), wk =   0.0014577
        k(  733) = (   0.3571429   0.0714286   0.5000000), wk =   0.0014577
        k(  734) = (   0.3571429  -0.0714286  -0.5000000), wk =   0.0014577
        k(  735) = (  -0.5000000  -0.3571429   0.0714286), wk =   0.0014577
        k(  736) = (   0.5000000  -0.3571429  -0.0714286), wk =   0.0014577
        k(  737) = (  -0.0714286  -0.5000000   0.3571429), wk =   0.0014577
        k(  738) = (  -0.0714286   0.5000000  -0.3571429), wk =   0.0014577
        k(  739) = (   0.3571429  -0.5000000   0.0714286), wk =   0.0014577
        k(  740) = (   0.3571429   0.5000000  -0.0714286), wk =   0.0014577
        k(  741) = (  -0.5000000   0.0714286   0.3571429), wk =   0.0014577
        k(  742) = (   0.5000000  -0.0714286   0.3571429), wk =   0.0014577
        k(  743) = (  -0.0714286  -0.4285714   0.4285714), wk =   0.0014577
        k(  744) = (  -0.0714286   0.4285714  -0.4285714), wk =   0.0014577
        k(  745) = (   0.0714286  -0.4285714  -0.4285714), wk =   0.0014577
        k(  746) = (   0.4285714   0.0714286  -0.4285714), wk =   0.0014577
        k(  747) = (  -0.4285714  -0.0714286  -0.4285714), wk =   0.0014577
        k(  748) = (   0.4285714  -0.0714286   0.4285714), wk =   0.0014577
        k(  749) = (  -0.4285714   0.0714286   0.4285714), wk =   0.0014577
        k(  750) = (   0.4285714  -0.4285714   0.0714286), wk =   0.0014577
        k(  751) = (  -0.4285714  -0.4285714  -0.0714286), wk =   0.0014577
        k(  752) = (   0.4285714   0.4285714  -0.0714286), wk =   0.0014577
        k(  753) = (  -0.4285714   0.4285714   0.0714286), wk =   0.0014577
        k(  754) = (  -0.0714286   0.4285714   0.5000000), wk =   0.0014577
        k(  755) = (   0.4285714   0.0714286   0.5000000), wk =   0.0014577
        k(  756) = (   0.4285714  -0.0714286  -0.5000000), wk =   0.0014577
        k(  757) = (  -0.5000000  -0.4285714   0.0714286), wk =   0.0014577
        k(  758) = (   0.5000000  -0.4285714  -0.0714286), wk =   0.0014577
        k(  759) = (  -0.0714286  -0.5000000   0.4285714), wk =   0.0014577
        k(  760) = (  -0.0714286   0.5000000  -0.4285714), wk =   0.0014577
        k(  761) = (   0.4285714  -0.5000000   0.0714286), wk =   0.0014577
        k(  762) = (   0.4285714   0.5000000  -0.0714286), wk =   0.0014577
        k(  763) = (  -0.5000000   0.0714286   0.4285714), wk =   0.0014577
        k(  764) = (   0.5000000  -0.0714286   0.4285714), wk =   0.0014577
        k(  765) = (  -0.5000000   0.0714286   0.5000000), wk =   0.0014577
        k(  766) = (  -0.5000000   0.5000000   0.0714286), wk =   0.0014577
        k(  767) = (  -0.1428571  -0.1428571   0.1428571), wk =   0.0014577
        k(  768) = (  -0.1428571   0.1428571  -0.1428571), wk =   0.0014577
        k(  769) = (   0.1428571  -0.1428571  -0.1428571), wk =   0.0014577
        k(  770) = (  -0.1428571  -0.1428571   0.2142857), wk =   0.0014577
        k(  771) = (  -0.1428571   0.1428571  -0.2142857), wk =   0.0014577
        k(  772) = (   0.1428571  -0.1428571  -0.2142857), wk =   0.0014577
        k(  773) = (   0.2142857  -0.1428571   0.1428571), wk =   0.0014577
        k(  774) = (  -0.2142857  -0.1428571  -0.1428571), wk =   0.0014577
        k(  775) = (   0.2142857   0.1428571  -0.1428571), wk =   0.0014577
        k(  776) = (  -0.2142857   0.1428571   0.1428571), wk =   0.0014577
        k(  777) = (  -0.1428571   0.2142857   0.1428571), wk =   0.0014577
        k(  778) = (  -0.1428571  -0.2142857  -0.1428571), wk =   0.0014577
        k(  779) = (   0.1428571   0.2142857  -0.1428571), wk =   0.0014577
        k(  780) = (   0.1428571  -0.2142857   0.1428571), wk =   0.0014577
        k(  781) = (  -0.1428571  -0.1428571   0.2857143), wk =   0.0014577
        k(  782) = (  -0.1428571   0.1428571  -0.2857143), wk =   0.0014577
        k(  783) = (   0.1428571  -0.1428571  -0.2857143), wk =   0.0014577
        k(  784) = (   0.2857143  -0.1428571   0.1428571), wk =   0.0014577
        k(  785) = (  -0.2857143  -0.1428571  -0.1428571), wk =   0.0014577
        k(  786) = (   0.2857143   0.1428571  -0.1428571), wk =   0.0014577
        k(  787) = (  -0.2857143   0.1428571   0.1428571), wk =   0.0014577
        k(  788) = (  -0.1428571   0.2857143   0.1428571), wk =   0.0014577
        k(  789) = (  -0.1428571  -0.2857143  -0.1428571), wk =   0.0014577
        k(  790) = (   0.1428571   0.2857143  -0.1428571), wk =   0.0014577
        k(  791) = (   0.1428571  -0.2857143   0.1428571), wk =   0.0014577
        k(  792) = (  -0.1428571  -0.1428571   0.3571429), wk =   0.0014577
        k(  793) = (  -0.1428571   0.1428571  -0.3571429), wk =   0.0014577
        k(  794) = (   0.1428571  -0.1428571  -0.3571429), wk =   0.0014577
        k(  795) = (   0.3571429  -0.1428571   0.1428571), wk =   0.0014577
        k(  796) = (  -0.3571429  -0.1428571  -0.1428571), wk =   0.0014577
        k(  797) = (   0.3571429   0.1428571  -0.1428571), wk =   0.0014577
        k(  798) = (  -0.3571429   0.1428571   0.1428571), wk =   0.0014577
        k(  799) = (  -0.1428571   0.3571429   0.1428571), wk =   0.0014577
        k(  800) = (  -0.1428571  -0.3571429  -0.1428571), wk =   0.0014577
        k(  801) = (   0.1428571   0.3571429  -0.1428571), wk =   0.0014577
        k(  802) = (   0.1428571  -0.3571429   0.1428571), wk =   0.0014577
        k(  803) = (  -0.1428571  -0.1428571   0.4285714), wk =   0.0014577
        k(  804) = (  -0.1428571   0.1428571  -0.4285714), wk =   0.0014577
        k(  805) = (   0.1428571  -0.1428571  -0.4285714), wk =   0.0014577
        k(  806) = (   0.4285714  -0.1428571   0.1428571), wk =   0.0014577
        k(  807) = (  -0.4285714  -0.1428571  -0.1428571), wk =   0.0014577
        k(  808) = (   0.4285714   0.1428571  -0.1428571), wk =   0.0014577
        k(  809) = (  -0.4285714   0.1428571   0.1428571), wk =   0.0014577
        k(  810) = (  -0.1428571   0.4285714   0.1428571), wk =   0.0014577
        k(  811) = (  -0.1428571  -0.4285714  -0.1428571), wk =   0.0014577
        k(  812) = (   0.1428571   0.4285714  -0.1428571), wk =   0.0014577
        k(  813) = (   0.1428571  -0.4285714   0.1428571), wk =   0.0014577
        k(  814) = (  -0.1428571   0.1428571   0.5000000), wk =   0.0014577
        k(  815) = (  -0.5000000  -0.1428571   0.1428571), wk =   0.0014577
        k(  816) = (   0.5000000  -0.1428571  -0.1428571), wk =   0.0014577
        k(  817) = (  -0.1428571  -0.5000000   0.1428571), wk =   0.0014577
        k(  818) = (  -0.1428571   0.5000000  -0.1428571), wk =   0.0014577
        k(  819) = (  -0.1428571  -0.2142857   0.2142857), wk =   0.0014577
        k(  820) = (  -0.1428571   0.2142857  -0.2142857), wk =   0.0014577
        k(  821) = (   0.1428571  -0.2142857  -0.2142857), wk =   0.0014577
        k(  822) = (   0.2142857   0.1428571  -0.2142857), wk =   0.0014577
        k(  823) = (  -0.2142857  -0.1428571  -0.2142857), wk =   0.0014577
        k(  824) = (   0.2142857  -0.1428571   0.2142857), wk =   0.0014577
        k(  825) = (  -0.2142857   0.1428571   0.2142857), wk =   0.0014577
        k(  826) = (   0.2142857  -0.2142857   0.1428571), wk =   0.0014577
        k(  827) = (  -0.2142857  -0.2142857  -0.1428571), wk =   0.0014577
        k(  828) = (   0.2142857   0.2142857  -0.1428571), wk =   0.0014577
        k(  829) = (  -0.2142857   0.2142857   0.1428571), wk =   0.0014577
        k(  830) = (  -0.1428571  -0.2142857   0.2857143), wk =   0.0014577
        k(  831) = (  -0.1428571   0.2142857  -0.2857143), wk =   0.0014577
        k(  832) = (   0.1428571  -0.2142857  -0.2857143), wk =   0.0014577
        k(  833) = (   0.2142857   0.1428571  -0.2857143), wk =   0.0014577
        k(  834) = (  -0.2142857  -0.1428571  -0.2857143), wk =   0.0014577
        k(  835) = (   0.2142857  -0.1428571   0.2857143), wk =   0.0014577
        k(  836) = (  -0.2142857   0.1428571   0.2857143), wk =   0.0014577
        k(  837) = (   0.2857143  -0.2142857   0.1428571), wk =   0.0014577
        k(  838) = (  -0.2857143  -0.2142857  -0.1428571), wk =   0.0014577
        k(  839) = (   0.2857143   0.2142857  -0.1428571), wk =   0.0014577
        k(  840) = (  -0.2857143   0.2142857   0.1428571), wk =   0.0014577
        k(  841) = (  -0.1428571   0.2857143   0.2142857), wk =   0.0014577
        k(  842) = (  -0.1428571  -0.2857143  -0.2142857), wk =   0.0014577
        k(  843) = (   0.1428571   0.2857143  -0.2142857), wk =   0.0014577
        k(  844) = (   0.1428571  -0.2857143   0.2142857), wk =   0.0014577
        k(  845) = (   0.2142857   0.2857143   0.1428571), wk =   0.0014577
        k(  846) = (  -0.2142857   0.2857143  -0.1428571), wk =   0.0014577
        k(  847) = (   0.2142857  -0.2857143  -0.1428571), wk =   0.0014577
        k(  848) = (  -0.2142857  -0.2857143   0.1428571), wk =   0.0014577
        k(  849) = (   0.2857143   0.1428571   0.2142857), wk =   0.0014577
        k(  850) = (   0.2857143  -0.1428571  -0.2142857), wk =   0.0014577
        k(  851) = (  -0.2857143  -0.1428571   0.2142857), wk =   0.0014577
        k(  852) = (  -0.2857143   0.1428571  -0.2142857), wk =   0.0014577
        k(  853) = (  -0.1428571  -0.2142857   0.3571429), wk =   0.0014577
        k(  854) = (  -0.1428571   0.2142857  -0.3571429), wk =   0.0014577
        k(  855) = (   0.1428571  -0.2142857  -0.3571429), wk =   0.0014577
        k(  856) = (   0.2142857   0.1428571  -0.3571429), wk =   0.0014577
        k(  857) = (  -0.2142857  -0.1428571  -0.3571429), wk =   0.0014577
        k(  858) = (   0.2142857  -0.1428571   0.3571429), wk =   0.0014577
        k(  859) = (  -0.2142857   0.1428571   0.3571429), wk =   0.0014577
        k(  860) = (   0.3571429  -0.2142857   0.1428571), wk =   0.0014577
        k(  861) = (  -0.3571429  -0.2142857  -0.1428571), wk =   0.0014577
        k(  862) = (   0.3571429   0.2142857  -0.1428571), wk =   0.0014577
        k(  863) = (  -0.3571429   0.2142857   0.1428571), wk =   0.0014577
        k(  864) = (  -0.1428571   0.3571429   0.2142857), wk =   0.0014577
        k(  865) = (  -0.1428571  -0.3571429  -0.2142857), wk =   0.0014577
        k(  866) = (   0.1428571   0.3571429  -0.2142857), wk =   0.0014577
        k(  867) = (   0.1428571  -0.3571429   0.2142857), wk =   0.0014577
        k(  868) = (   0.2142857   0.3571429   0.1428571), wk =   0.0014577
        k(  869) = (  -0.2142857   0.3571429  -0.1428571), wk =   0.0014577
        k(  870) = (   0.2142857  -0.3571429  -0.1428571), wk =   0.0014577
        k(  871) = (  -0.2142857  -0.3571429   0.1428571), wk =   0.0014577
        k(  872) = (   0.3571429   0.1428571   0.2142857), wk =   0.0014577
        k(  873) = (   0.3571429  -0.1428571  -0.2142857), wk =   0.0014577
        k(  874) = (  -0.3571429  -0.1428571   0.2142857), wk =   0.0014577
        k(  875) = (  -0.3571429   0.1428571  -0.2142857), wk =   0.0014577
        k(  876) = (  -0.1428571  -0.2142857   0.4285714), wk =   0.0014577
        k(  877) = (  -0.1428571   0.2142857  -0.4285714), wk =   0.0014577
        k(  878) = (   0.1428571  -0.2142857  -0.4285714), wk =   0.0014577
        k(  879) = (   0.2142857   0.1428571  -0.4285714), wk =   0.0014577
        k(  880) = (  -0.2142857  -0.1428571  -0.4285714), wk =   0.0014577
        k(  881) = (   0.2142857  -0.1428571   0.4285714), wk =   0.0014577
        k(  882) = (  -0.2142857   0.1428571   0.4285714), wk =   0.0014577
        k(  883) = (   0.4285714  -0.2142857   0.1428571), wk =   0.0014577
        k(  884) = (  -0.4285714  -0.2142857  -0.1428571), wk =   0.0014577
        k(  885) = (   0.4285714   0.2142857  -0.1428571), wk =   0.0014577
        k(  886) = (  -0.4285714   0.2142857   0.1428571), wk =   0.0014577
        k(  887) = (  -0.1428571   0.4285714   0.2142857), wk =   0.0014577
        k(  888) = (  -0.1428571  -0.4285714  -0.2142857), wk =   0.0014577
        k(  889) = (   0.1428571   0.4285714  -0.2142857), wk =   0.0014577
        k(  890) = (   0.1428571  -0.4285714   0.2142857), wk =   0.0014577
        k(  891) = (   0.2142857   0.4285714   0.1428571), wk =   0.0014577
        k(  892) = (  -0.2142857   0.4285714  -0.1428571), wk =   0.0014577
        k(  893) = (   0.2142857  -0.4285714  -0.1428571), wk =   0.0014577
        k(  894) = (  -0.2142857  -0.4285714   0.1428571), wk =   0.0014577
        k(  895) = (   0.4285714   0.1428571   0.2142857), wk =   0.0014577
        k(  896) = (   0.4285714  -0.1428571  -0.2142857), wk =   0.0014577
        k(  897) = (  -0.4285714  -0.1428571   0.2142857), wk =   0.0014577
        k(  898) = (  -0.4285714   0.1428571  -0.2142857), wk =   0.0014577
        k(  899) = (  -0.1428571   0.2142857   0.5000000), wk =   0.0014577
        k(  900) = (   0.2142857   0.1428571   0.5000000), wk =   0.0014577
        k(  901) = (   0.2142857  -0.1428571  -0.5000000), wk =   0.0014577
        k(  902) = (  -0.5000000  -0.2142857   0.1428571), wk =   0.0014577
        k(  903) = (   0.5000000  -0.2142857  -0.1428571), wk =   0.0014577
        k(  904) = (  -0.1428571  -0.5000000   0.2142857), wk =   0.0014577
        k(  905) = (  -0.1428571   0.5000000  -0.2142857), wk =   0.0014577
        k(  906) = (   0.2142857  -0.5000000   0.1428571), wk =   0.0014577
        k(  907) = (   0.2142857   0.5000000  -0.1428571), wk =   0.0014577
        k(  908) = (  -0.5000000   0.1428571   0.2142857), wk =   0.0014577
        k(  909) = (   0.5000000  -0.1428571   0.2142857), wk =   0.0014577
        k(  910) = (  -0.1428571  -0.2857143   0.2857143), wk =   0.0014577
        k(  911) = (  -0.1428571   0.2857143  -0.2857143), wk =   0.0014577
        k(  912) = (   0.1428571  -0.2857143  -0.2857143), wk =   0.0014577
        k(  913) = (   0.2857143   0.1428571  -0.2857143), wk =   0.0014577
        k(  914) = (  -0.2857143  -0.1428571  -0.2857143), wk =   0.0014577
        k(  915) = (   0.2857143  -0.1428571   0.2857143), wk =   0.0014577
        k(  916) = (  -0.2857143   0.1428571   0.2857143), wk =   0.0014577
        k(  917) = (   0.2857143  -0.2857143   0.1428571), wk =   0.0014577
        k(  918) = (  -0.2857143  -0.2857143  -0.1428571), wk =   0.0014577
        k(  919) = (   0.2857143   0.2857143  -0.1428571), wk =   0.0014577
        k(  920) = (  -0.2857143   0.2857143   0.1428571), wk =   0.0014577
        k(  921) = (  -0.1428571  -0.2857143   0.3571429), wk =   0.0014577
        k(  922) = (  -0.1428571   0.2857143  -0.3571429), wk =   0.0014577
        k(  923) = (   0.1428571  -0.2857143  -0.3571429), wk =   0.0014577
        k(  924) = (   0.2857143   0.1428571  -0.3571429), wk =   0.0014577
        k(  925) = (  -0.2857143  -0.1428571  -0.3571429), wk =   0.0014577
        k(  926) = (   0.2857143  -0.1428571   0.3571429), wk =   0.0014577
        k(  927) = (  -0.2857143   0.1428571   0.3571429), wk =   0.0014577
        k(  928) = (   0.3571429  -0.2857143   0.1428571), wk =   0.0014577
        k(  929) = (  -0.3571429  -0.2857143  -0.1428571), wk =   0.0014577
        k(  930) = (   0.3571429   0.2857143  -0.1428571), wk =   0.0014577
        k(  931) = (  -0.3571429   0.2857143   0.1428571), wk =   0.0014577
        k(  932) = (  -0.1428571   0.3571429   0.2857143), wk =   0.0014577
        k(  933) = (  -0.1428571  -0.3571429  -0.2857143), wk =   0.0014577
        k(  934) = (   0.1428571   0.3571429  -0.2857143), wk =   0.0014577
        k(  935) = (   0.1428571  -0.3571429   0.2857143), wk =   0.0014577
        k(  936) = (   0.2857143   0.3571429   0.1428571), wk =   0.0014577
        k(  937) = (  -0.2857143   0.3571429  -0.1428571), wk =   0.0014577
        k(  938) = (   0.2857143  -0.3571429  -0.1428571), wk =   0.0014577
        k(  939) = (  -0.2857143  -0.3571429   0.1428571), wk =   0.0014577
        k(  940) = (   0.3571429   0.1428571   0.2857143), wk =   0.0014577
        k(  941) = (   0.3571429  -0.1428571  -0.2857143), wk =   0.0014577
        k(  942) = (  -0.3571429  -0.1428571   0.2857143), wk =   0.0014577
        k(  943) = (  -0.3571429   0.1428571  -0.2857143), wk =   0.0014577
        k(  944) = (  -0.1428571  -0.2857143   0.4285714), wk =   0.0014577
        k(  945) = (  -0.1428571   0.2857143  -0.4285714), wk =   0.0014577
[...]
    19.7153  19.8823  20.5004  20.9049  21.6219  22.1658  22.2385  22.7951
    23.3920  23.5850  24.5395  24.9201  25.6045  25.6874  26.0875  26.5508
    26.6140  27.3357  27.8302  28.0207  28.5816  29.0156  29.3214  30.0984
    30.2616  31.0933  31.3809  31.6905  31.9394  32.3426  32.4918  32.9777
    33.4140  33.8129  34.2523  34.4838  35.0689  35.5697  35.8688  36.0196
    36.2217  36.9049  37.2291  37.7355  38.1225  38.3070  38.3874  39.0779
    39.4044  39.5282  39.6738  39.9284

     occupation numbers 
     1.0000   1.0000   1.0000   1.0000   1.0000   1.0000   1.0000   1.0000
     1.0000   1.0000   1.0000   1.0000   1.0000   1.0000   1.0000   1.0000
     1.0000   1.0000   0.0000   0.0000   0.0000   0.0000   0.0000   0.0000
     0.0000   0.0000   0.0000   0.0000   0.0000   0.0000   0.0000   0.0000
     0.0000   0.0000   0.0000   0.0000   0.0000   0.0000   0.0000   0.0000
     0.0000   0.0000   0.0000   0.0000   0.0000   0.0000   0.0000   0.0000
     0.0000   0.0000   0.0000   0.0000   0.0000   0.0000   0.0000   0.0000
     0.0000   0.0000   0.0000   0.0000   0.0000   0.0000   0.0000   0.0000
     0.0000   0.0000   0.0000   0.0000   0.0000   0.0000   0.0000   0.0000
     0.0000   0.0000   0.0000   0.0000   0.0000   0.0000   0.0000   0.0000
     0.0000   0.0000   0.0000   0.0000   0.0000   0.0000   0.0000   0.0000
     0.0000   0.0000   0.0000   0.0000   0.0000   0.0000   0.0000   0.0000
     0.0000   0.0000   0.0000   0.0000

          k = 0.4286-0.4286-0.4286 ( 14886 PWs)   bands (ev):

   -21.1130 -20.0849 -16.8595 -13.1454 -10.7626  -8.9344  -7.7320  -6.9517
    -6.3352  -6.1761  -5.5575  -4.9633  -4.2976  -3.9425  -2.6261  -1.4611
    -1.0829  -0.3477   2.6878   5.1354   5.9595   6.9278   7.3057   7.6897
     8.6084   8.7741   9.6097  10.1881  10.4340  10.7954  11.6086  12.6467
    12.8642  13.5964  14.0938  14.5253  14.8838  15.2593  15.6367  16.0466
    16.4403  17.1515  17.4701  17.8412  18.1586  18.4493  18.8766  19.2510
    19.6480  19.9250  20.5722  21.0802  21.4625  21.8937  22.2301  22.7684
    23.2859  23.9076  24.3195  24.8489  25.6364  26.1286  26.3126  26.6287
    26.9787  27.2502  27.7151  28.0078  28.3907  28.8559  29.5426  29.7721
    30.3392  30.7586  31.4667  31.5973  31.8309  32.0742  32.5091  33.1994
    33.4640  33.7826  34.3571  34.6342  35.1253  35.6601  35.7948  35.9136
    36.4164  36.9450  37.2396  37.7341  38.0353  38.3175  38.4922  38.8340
    39.3349  39.5488  39.8179  40.1668

     occupation numbers 
     1.0000   1.0000   1.0000   1.0000   1.0000   1.0000   1.0000   1.0000
     1.0000   1.0000   1.0000   1.0000   1.0000   1.0000   1.0000   1.0000
     1.0000   1.0000   0.0000   0.0000   0.0000   0.0000   0.0000   0.0000
     0.0000   0.0000   0.0000   0.0000   0.0000   0.0000   0.0000   0.0000
     0.0000   0.0000   0.0000   0.0000   0.0000   0.0000   0.0000   0.0000
     0.0000   0.0000   0.0000   0.0000   0.0000   0.0000   0.0000   0.0000
     0.0000   0.0000   0.0000   0.0000   0.0000   0.0000   0.0000   0.0000
     0.0000   0.0000   0.0000   0.0000   0.0000   0.0000   0.0000   0.0000
     0.0000   0.0000   0.0000   0.0000   0.0000   0.0000   0.0000   0.0000
     0.0000   0.0000   0.0000   0.0000   0.0000   0.0000   0.0000   0.0000
     0.0000   0.0000   0.0000   0.0000   0.0000   0.0000   0.0000   0.0000
     0.0000   0.0000   0.0000   0.0000   0.0000   0.0000   0.0000   0.0000
     0.0000   0.0000   0.0000   0.0000

          k =-0.4286 0.4286 0.5000 ( 14884 PWs)   bands (ev):

   -21.1118 -20.0849 -16.8636 -13.1433 -10.7579  -8.9407  -7.7287  -6.9731
    -6.2853  -6.2178  -5.5549  -4.9700  -4.2609  -3.9491  -2.6227  -1.4673
    -1.0862  -0.3444   2.6887   5.1374   5.9457   6.8302   7.3635   7.6667
     8.6034   8.8732   9.6965  10.1496  10.3899  10.7768  11.4697  12.5304
    13.0634  13.5316  14.1581  14.6528  14.8332  15.2648  15.6588  16.1514
    16.5260  17.0595  17.3267  17.7413  17.9893  18.4883  19.0569  19.3407
    19.5640  19.9853  20.5763  21.0355  21.4608  22.0478  22.2922  22.5707
    23.2866  23.8513  24.4503  25.0390  25.6227  25.9912  26.2126  26.4625
    26.9075  27.2358  27.7294  28.0060  28.4980  28.7391  29.4127  29.8980
    30.3997  30.8691  31.3728  31.7336  31.8829  32.1063  32.5277  33.1044
    33.4025  33.8497  34.1980  34.5985  35.2163  35.5082  35.8957  36.1116
    36.4890  36.9122  37.3201  37.7521  38.0332  38.3552  38.4222  38.8199
    39.2197  39.5189  39.7640  40.1153

     occupation numbers 
     1.0000   1.0000   1.0000   1.0000   1.0000   1.0000   1.0000   1.0000
     1.0000   1.0000   1.0000   1.0000   1.0000   1.0000   1.0000   1.0000
     1.0000   1.0000   0.0000   0.0000   0.0000   0.0000   0.0000   0.0000
     0.0000   0.0000   0.0000   0.0000   0.0000   0.0000   0.0000   0.0000
     0.0000   0.0000   0.0000   0.0000   0.0000   0.0000   0.0000   0.0000
     0.0000   0.0000   0.0000   0.0000   0.0000   0.0000   0.0000   0.0000
     0.0000   0.0000   0.0000   0.0000   0.0000   0.0000   0.0000   0.0000
     0.0000   0.0000   0.0000   0.0000   0.0000   0.0000   0.0000   0.0000
     0.0000   0.0000   0.0000   0.0000   0.0000   0.0000   0.0000   0.0000
     0.0000   0.0000   0.0000   0.0000   0.0000   0.0000   0.0000   0.0000
     0.0000   0.0000   0.0000   0.0000   0.0000   0.0000   0.0000   0.0000
     0.0000   0.0000   0.0000   0.0000   0.0000   0.0000   0.0000   0.0000
     0.0000   0.0000   0.0000   0.0000

          k =-0.5000-0.4286 0.4286 ( 14884 PWs)   bands (ev):

   -21.1128 -20.0845 -16.8585 -13.1561 -10.7439  -8.9448  -7.7454  -6.9605
    -6.2998  -6.2156  -5.5346  -4.9682  -4.2844  -3.9406  -2.6221  -1.4611
    -1.0832  -0.3343   2.6875   5.1424   6.0469   6.7513   7.2610   7.7116
     8.3844   9.0127   9.7971  10.1863  10.3315  10.7215  11.5590  12.4485
    13.1558  13.5826  14.2497  14.5412  14.8313  15.4200  15.7418  15.9757
    16.3902  17.0067  17.3301  17.6910  17.9459  18.5795  19.1664  19.2925
    19.7560  19.9363  20.5403  20.8750  21.4298  22.0933  22.2859  22.5974
    23.4550  23.6782  24.4726  24.9422  25.5670  25.8893  26.1511  26.3708
    26.8503  27.5589  27.6272  28.1354  28.6291  29.0696  29.3568  29.9987
    30.1864  30.9739  31.2114  31.4010  32.0268  32.1647  32.5386  32.8692
    33.3380  34.0942  34.3583  34.6276  35.1234  35.7080  35.8742  36.1934
    36.5164  36.9331  37.3653  37.6158  37.7944  38.4163  38.7833  38.9555
    39.3674  39.5170  39.6086  40.1252

     occupation numbers 
     1.0000   1.0000   1.0000   1.0000   1.0000   1.0000   1.0000   1.0000
     1.0000   1.0000   1.0000   1.0000   1.0000   1.0000   1.0000   1.0000
     1.0000   1.0000   0.0000   0.0000   0.0000   0.0000   0.0000   0.0000
     0.0000   0.0000   0.0000   0.0000   0.0000   0.0000   0.0000   0.0000
     0.0000   0.0000   0.0000   0.0000   0.0000   0.0000   0.0000   0.0000
     0.0000   0.0000   0.0000   0.0000   0.0000   0.0000   0.0000   0.0000
     0.0000   0.0000   0.0000   0.0000   0.0000   0.0000   0.0000   0.0000
     0.0000   0.0000   0.0000   0.0000   0.0000   0.0000   0.0000   0.0000
     0.0000   0.0000   0.0000   0.0000   0.0000   0.0000   0.0000   0.0000
     0.0000   0.0000   0.0000   0.0000   0.0000   0.0000   0.0000   0.0000
     0.0000   0.0000   0.0000   0.0000   0.0000   0.0000   0.0000   0.0000
     0.0000   0.0000   0.0000   0.0000   0.0000   0.0000   0.0000   0.0000
     0.0000   0.0000   0.0000   0.0000

          k = 0.5000-0.4286-0.4286 ( 14884 PWs)   bands (ev):

   -21.1129 -20.0844 -16.8587 -13.1538 -10.7531  -8.9445  -7.7413  -6.9324
    -6.3276  -6.1751  -5.5781  -4.9580  -4.2936  -3.9436  -2.6210  -1.4592
    -1.0828  -0.3317   2.6868   5.1110   6.0104   6.8818   7.2680   7.6634
     8.6064   8.7727   9.6528  10.1852  10.4293  10.7559  11.6399  12.6045
    12.9561  13.5333  14.1740  14.6412  14.7980  15.3694  15.5986  16.2172
    16.4456  17.0961  17.2847  17.6789  18.0718  18.4721  18.8991  19.3630
    19.5754  19.8626  20.6744  21.1066  21.4529  21.9860  22.1357  22.6721
    23.3683  23.8392  24.3468  24.9652  25.5058  26.0848  26.3343  26.6392
    27.1299  27.3263  27.7552  28.0441  28.2237  28.9424  29.4491  29.7348
    30.1501  30.7472  31.4836  31.6468  31.8393  32.2195  32.5099  33.1406
    33.3534  33.7786  34.5055  34.9478  35.1199  35.6191  35.9397  36.0238
    36.2749  36.8588  37.3362  37.6289  37.9948  38.3518  38.6762  38.9983
    39.1523  39.3944  39.6900  40.0135

     occupation numbers 
     1.0000   1.0000   1.0000   1.0000   1.0000   1.0000   1.0000   1.0000
     1.0000   1.0000   1.0000   1.0000   1.0000   1.0000   1.0000   1.0000
     1.0000   1.0000   0.0000   0.0000   0.0000   0.0000   0.0000   0.0000
     0.0000   0.0000   0.0000   0.0000   0.0000   0.0000   0.0000   0.0000
     0.0000   0.0000   0.0000   0.0000   0.0000   0.0000   0.0000   0.0000
     0.0000   0.0000   0.0000   0.0000   0.0000   0.0000   0.0000   0.0000
     0.0000   0.0000   0.0000   0.0000   0.0000   0.0000   0.0000   0.0000
     0.0000   0.0000   0.0000   0.0000   0.0000   0.0000   0.0000   0.0000
     0.0000   0.0000   0.0000   0.0000   0.0000   0.0000   0.0000   0.0000
     0.0000   0.0000   0.0000   0.0000   0.0000   0.0000   0.0000   0.0000
     0.0000   0.0000   0.0000   0.0000   0.0000   0.0000   0.0000   0.0000
     0.0000   0.0000   0.0000   0.0000   0.0000   0.0000   0.0000   0.0000
     0.0000   0.0000   0.0000   0.0000

          k =-0.4286-0.5000 0.4286 ( 14884 PWs)   bands (ev):

   -21.1124 -20.0829 -16.8655 -13.1504 -10.7584  -8.9238  -7.7401  -6.9379
    -6.3208  -6.1512  -5.5679  -5.0178  -4.2955  -3.9377  -2.6076  -1.4634
    -1.0799  -0.3688   2.6959   5.1805   6.0409   6.8403   7.2322   7.6233
     8.4987   8.9324   9.6797  10.1691  10.3195  10.7618  11.6135  12.5954
    13.0153  13.5330  14.3367  14.4465  14.9542  15.2533  15.7853  16.1226
    16.5136  17.0204  17.3920  17.5667  18.2895  18.4880  18.9146  19.2150
    19.6828  19.9122  20.4653  20.9500  21.3457  21.9934  22.1896  22.7947
    23.4811  23.8165  24.2760  25.0033  25.5567  26.1053  26.2780  26.4162
    27.0295  27.3084  27.7364  28.0127  28.5680  28.8317  29.5677  29.8269
    30.3137  30.5125  31.2849  31.4844  31.9423  32.1632  32.4750  33.0270
    33.5367  33.8966  34.3914  34.9209  35.2576  35.5085  35.8566  36.1203
    36.2643  37.0449  37.2422  37.7142  38.0435  38.3444  38.7288  39.1181
    39.3063  39.4965  39.9208  40.1388

     occupation numbers 
     1.0000   1.0000   1.0000   1.0000   1.0000   1.0000   1.0000   1.0000
     1.0000   1.0000   1.0000   1.0000   1.0000   1.0000   1.0000   1.0000
     1.0000   1.0000   0.0000   0.0000   0.0000   0.0000   0.0000   0.0000
     0.0000   0.0000   0.0000   0.0000   0.0000   0.0000   0.0000   0.0000
     0.0000   0.0000   0.0000   0.0000   0.0000   0.0000   0.0000   0.0000
     0.0000   0.0000   0.0000   0.0000   0.0000   0.0000   0.0000   0.0000
     0.0000   0.0000   0.0000   0.0000   0.0000   0.0000   0.0000   0.0000
     0.0000   0.0000   0.0000   0.0000   0.0000   0.0000   0.0000   0.0000
     0.0000   0.0000   0.0000   0.0000   0.0000   0.0000   0.0000   0.0000
     0.0000   0.0000   0.0000   0.0000   0.0000   0.0000   0.0000   0.0000
     0.0000   0.0000   0.0000   0.0000   0.0000   0.0000   0.0000   0.0000
     0.0000   0.0000   0.0000   0.0000   0.0000   0.0000   0.0000   0.0000
     0.0000   0.0000   0.0000   0.0000

          k =-0.4286 0.5000-0.4286 ( 14884 PWs)   bands (ev):

   -21.1124 -20.0829 -16.8655 -13.1510 -10.7560  -8.9213  -7.7444  -6.9576
    -6.2876  -6.1700  -5.5660  -5.0142  -4.2868  -3.9420  -2.6111  -1.4615
    -1.0853  -0.3633   2.7057   5.0991   6.0973   6.6769   7.4162   7.6414
     8.5678   8.8976   9.6717  10.1806  10.3009  10.7986  11.5429  12.4758
    13.0764  13.4859  14.4303  14.5728  14.8430  15.3451  15.8101  16.1673
    16.4747  16.9169  17.2176  17.6613  17.9584  18.6471  18.9958  19.2686
    19.6149  19.8533  20.5692  21.0139  21.4203  22.0836  22.3821  22.7109
    23.4500  23.6937  24.3642  25.0644  25.3951  25.7894  26.2454  26.6564
    26.9519  27.3334  27.7619  28.0857  28.5094  28.7079  29.3514  29.8844
    30.2957  30.7451  31.4159  31.7379  31.9124  32.2952  32.6516  33.0290
    33.4448  33.8763  34.3944  34.7611  35.1958  35.3842  35.6957  36.0253
    36.2789  36.9294  37.2904  37.8659  38.0949  38.2000  38.6152  39.0133
    39.3909  39.6976  39.7715  40.0449

     occupation numbers 
     1.0000   1.0000   1.0000   1.0000   1.0000   1.0000   1.0000   1.0000
     1.0000   1.0000   1.0000   1.0000   1.0000   1.0000   1.0000   1.0000
     1.0000   1.0000   0.0000   0.0000   0.0000   0.0000   0.0000   0.0000
     0.0000   0.0000   0.0000   0.0000   0.0000   0.0000   0.0000   0.0000
     0.0000   0.0000   0.0000   0.0000   0.0000   0.0000   0.0000   0.0000
     0.0000   0.0000   0.0000   0.0000   0.0000   0.0000   0.0000   0.0000
     0.0000   0.0000   0.0000   0.0000   0.0000   0.0000   0.0000   0.0000
     0.0000   0.0000   0.0000   0.0000   0.0000   0.0000   0.0000   0.0000
     0.0000   0.0000   0.0000   0.0000   0.0000   0.0000   0.0000   0.0000
     0.0000   0.0000   0.0000   0.0000   0.0000   0.0000   0.0000   0.0000
     0.0000   0.0000   0.0000   0.0000   0.0000   0.0000   0.0000   0.0000
     0.0000   0.0000   0.0000   0.0000   0.0000   0.0000   0.0000   0.0000
     0.0000   0.0000   0.0000   0.0000

          k =-0.5000 0.4286 0.5000 ( 14884 PWs)   bands (ev):

   -21.1116 -20.0844 -16.8628 -13.1515 -10.7496  -8.9522  -7.7365  -6.9442
    -6.2895  -6.2117  -5.5766  -4.9660  -4.2609  -3.9484  -2.6157  -1.4669
    -1.0826  -0.3312   2.6824   5.1611   5.9712   6.8456   7.2412   7.6368
     8.5394   8.9203   9.7573  10.1313  10.3771  10.7288  11.5250  12.5662
    13.1389  13.4879  14.2251  14.6103  14.7969  15.4206  15.6649  16.2096
    16.5212  17.0310  17.2914  17.5944  17.9477  18.4300  19.0996  19.2865
    19.6089  19.9610  20.6534  21.1515  21.3936  22.0165  22.1460  22.4872
    23.3526  23.8074  24.4284  25.0947  25.5296  26.1537  26.2846  26.5486
    26.9542  27.4094  27.6074  27.8603  28.6081  28.8477  29.3360  29.8855
    30.2079  30.7772  31.3194  31.6404  31.8246  32.1984  32.5024  32.9490
    33.3521  34.0535  34.2462  34.8607  35.2786  35.6189  36.1063  36.2879
    36.5449  36.9058  37.1078  37.7084  37.8971  38.2595  38.7715  38.8817
    39.0911  39.3527  39.6769  40.0978

     occupation numbers 
     1.0000   1.0000   1.0000   1.0000   1.0000   1.0000   1.0000   1.0000
     1.0000   1.0000   1.0000   1.0000   1.0000   1.0000   1.0000   1.0000
     1.0000   1.0000   0.0000   0.0000   0.0000   0.0000   0.0000   0.0000
     0.0000   0.0000   0.0000   0.0000   0.0000   0.0000   0.0000   0.0000
     0.0000   0.0000   0.0000   0.0000   0.0000   0.0000   0.0000   0.0000
     0.0000   0.0000   0.0000   0.0000   0.0000   0.0000   0.0000   0.0000
     0.0000   0.0000   0.0000   0.0000   0.0000   0.0000   0.0000   0.0000
     0.0000   0.0000   0.0000   0.0000   0.0000   0.0000   0.0000   0.0000
     0.0000   0.0000   0.0000   0.0000   0.0000   0.0000   0.0000   0.0000
     0.0000   0.0000   0.0000   0.0000   0.0000   0.0000   0.0000   0.0000
     0.0000   0.0000   0.0000   0.0000   0.0000   0.0000   0.0000   0.0000
     0.0000   0.0000   0.0000   0.0000   0.0000   0.0000   0.0000   0.0000
     0.0000   0.0000   0.0000   0.0000

          k =-0.5000 0.5000 0.4286 ( 14884 PWs)   bands (ev):

   -21.1123 -20.0824 -16.8649 -13.1575 -10.7510  -8.9330  -7.7447  -6.9334
    -6.2989  -6.1647  -5.5751  -5.0101  -4.2915  -3.9421  -2.6052  -1.4617
    -1.0792  -0.3499   2.6948   5.1363   6.0515   6.7760   7.2653   7.6671
     8.4851   8.8985   9.7155  10.1853  10.3533  10.7083  11.5699  12.5519
    13.0846  13.6047  14.3626  14.5331  14.8383  15.3399  15.8203  16.1334
    16.5140  16.9001  17.3858  17.5633  17.9696  18.5295  18.9624  19.2731
    19.7146  19.8554  20.6032  20.9920  21.3552  22.0453  22.1798  22.6484
    23.5281  23.7306  24.3516  25.0734  25.5863  26.0212  26.2806  26.4764
    26.9678  27.4095  27.7130  27.9655  28.3991  28.8838  29.4715  29.7379
    30.2155  30.7600  31.3906  31.5570  31.9099  32.2178  32.5032  33.0824
    33.4514  33.9302  34.5062  34.9822  35.1499  35.5069  35.9133  35.9704
    36.2466  36.9992  37.3270  37.6042  38.1971  38.3913  38.7872  39.1176
    39.2830  39.3985  39.8376  39.9320

     occupation numbers 
     1.0000   1.0000   1.0000   1.0000   1.0000   1.0000   1.0000   1.0000
     1.0000   1.0000   1.0000   1.0000   1.0000   1.0000   1.0000   1.0000
     1.0000   1.0000   0.0000   0.0000   0.0000   0.0000   0.0000   0.0000
     0.0000   0.0000   0.0000   0.0000   0.0000   0.0000   0.0000   0.0000
     0.0000   0.0000   0.0000   0.0000   0.0000   0.0000   0.0000   0.0000
     0.0000   0.0000   0.0000   0.0000   0.0000   0.0000   0.0000   0.0000
     0.0000   0.0000   0.0000   0.0000   0.0000   0.0000   0.0000   0.0000
     0.0000   0.0000   0.0000   0.0000   0.0000   0.0000   0.0000   0.0000
     0.0000   0.0000   0.0000   0.0000   0.0000   0.0000   0.0000   0.0000
     0.0000   0.0000   0.0000   0.0000   0.0000   0.0000   0.0000   0.0000
     0.0000   0.0000   0.0000   0.0000   0.0000   0.0000   0.0000   0.0000
     0.0000   0.0000   0.0000   0.0000   0.0000   0.0000   0.0000   0.0000
     0.0000   0.0000   0.0000   0.0000

     the Fermi energy is     2.5491 ev

     Writing output data file aiida.save

     init_run     :      2.02s CPU      2.15s WALL (       1 calls)
     electrons    :  27763.56s CPU  28570.30s WALL (       1 calls)

     Called by init_run:
     wfcinit      :      0.00s CPU      0.00s WALL (       1 calls)
     potinit      :      0.35s CPU      0.36s WALL (       1 calls)

     Called by electrons:
     c_bands      :  27762.00s CPU  28568.23s WALL (       1 calls)
     v_of_rho     :      0.14s CPU      0.14s WALL (       1 calls)
     v_h          :      0.00s CPU      0.01s WALL (       1 calls)
     v_xc         :      0.13s CPU      0.13s WALL (       1 calls)
     newd         :      0.21s CPU      0.21s WALL (       1 calls)

     Called by c_bands:
     init_us_2    :      2.38s CPU      2.50s WALL (    1376 calls)
     cegterg      :  27025.49s CPU  27805.13s WALL (    2908 calls)

     Called by sum_band:

     Called by *egterg:
     h_psi        :   4954.60s CPU   5128.72s WALL (   46231 calls)
     s_psi        :    688.88s CPU    706.43s WALL (   46231 calls)
     g_psi        :     30.92s CPU     31.58s WALL (   41947 calls)
     cdiaghg      :   6400.28s CPU   6590.71s WALL (   43323 calls)
     cegterg:over :   6425.30s CPU   6571.10s WALL (   41947 calls)
     cegterg:upda :   4018.83s CPU   4122.26s WALL (   41947 calls)
     cegterg:last :   4064.16s CPU   4162.63s WALL (    7036 calls)
     cdiaghg:chol :    381.64s CPU    392.03s WALL (   43323 calls)
     cdiaghg:inve :     33.85s CPU     35.05s WALL (   43323 calls)
     cdiaghg:para :   2084.29s CPU   2145.80s WALL (   86646 calls)

     Called by h_psi:
     h_psi:vloc   :   3361.41s CPU   3495.40s WALL (   46231 calls)
     h_psi:vnl    :   1567.99s CPU   1606.96s WALL (   46231 calls)
     add_vuspsi   :    693.36s CPU    710.85s WALL (   46231 calls)

     General routines
     calbec       :    874.26s CPU    895.89s WALL (   46231 calls)
     fft          :      0.14s CPU      0.15s WALL (      13 calls)
     ffts         :      0.00s CPU      0.00s WALL (       1 calls)
     fftw         :   2849.96s CPU   2964.33s WALL ( 3919678 calls)
     interpolate  :      0.01s CPU      0.01s WALL (       1 calls)
     davcio       :      3.40s CPU     77.54s WALL (    1376 calls)

     Parallel routines
     fft_scatter  :   1611.33s CPU   1677.82s WALL ( 3919692 calls)

     PAW routines
     PAW_pot      :      0.14s CPU      0.14s WALL (       1 calls)

     PWSCF        :     7h42m CPU        7h57m WALL


   This run was terminated on:  21:23:36  10Jan2023            

=------------------------------------------------------------------------------=
   JOB DONE.
=------------------------------------------------------------------------------=
