
     Program PWSCF v.5.1 starts on  5Jan2023 at 11:54:42 

     This program is part of the open-source Quantum ESPRESSO suite
     for quantum simulation of materials; please cite
         "P. Giannozzi et al., J. Phys.:Condens. Matter 21 395502 (2009);
          URL http://www.quantum-espresso.org", 
     in publications or presentations arising from this work. More details at
     http://www.quantum-espresso.org/quote

     Parallel version (MPI), running on     8 processors
     R & G space division:  proc/nbgrp/npool/nimage =       8
     Waiting for input...
     Reading input from standard input

     Current dimensions of program PWSCF are:
     Max number of different atomic species (ntypx) = 10
     Max number of k-points (npk) =  40000
     Max angular momentum in pseudopotentials (lmaxx) =  3
               file C.pbesol-n-kjpaw_psl.1.0.0.UPF: wavefunction(s)  2S 2P renormalized
               file H.pbesol-kjpaw_psl.0.1.UPF: wavefunction(s)  1S renormalized
               file N.pbesol-n-kjpaw_psl.0.1.UPF: wavefunction(s)  2P renormalized
               file O.pbesol-n-kjpaw_psl.0.1.UPF: wavefunction(s)  2P renormalized

     Subspace diagonalization in iterative solution of the eigenvalue problem:
     scalapack distributed-memory algorithm (size of sub-group:  2*  2 procs)


     Parallelization info
     --------------------
     sticks:   dense  smooth     PW     G-vecs:    dense   smooth      PW
     Min        2418    1211    317               253128    89513   11899
     Max        2419    1212    318               253133    89532   11900
     Sum       19349    9689   2537              2025049   716183   95193



     bravais-lattice index     =            0
     lattice parameter (alat)  =      22.5090  a.u.
     unit-cell volume          =   11404.2970 (a.u.)^3
     number of atoms/cell      =           32
     number of atomic types    =            4
     number of electrons       =        88.00
     number of Kohn-Sham states=           44
     kinetic-energy cutoff     =      60.0000  Ry
     charge density cutoff     =     480.0000  Ry
     convergence threshold     =      1.0E-07
     mixing beta               =       0.4000
     number of iterations used =            8  plain     mixing
     Exchange-correlation      =  SLA  PW   PSX  PSC ( 1  4 10  8 0)

     celldm(1)=  22.508999  celldm(2)=   0.000000  celldm(3)=   0.000000
     celldm(4)=   0.000000  celldm(5)=   0.000000  celldm(6)=   0.000000

     crystal axes: (cart. coord. in units of alat)
               a(1) = (   1.000000   0.000000   0.000000 )  
               a(2) = (   0.000000   1.000000   0.000000 )  
               a(3) = (   0.000000   0.000000   1.000000 )  

     reciprocal axes: (cart. coord. in units 2 pi/alat)
               b(1) = (  1.000000  0.000000  0.000000 )  
               b(2) = (  0.000000  1.000000  0.000000 )  
               b(3) = (  0.000000  0.000000  1.000000 )  


     PseudoPot. # 1 for  C read from file:
     ./pseudo/C.pbesol-n-kjpaw_psl.1.0.0.UPF
     MD5 check sum: 5f3a56537b2bcef3348431d8311bb923
     Pseudo is Projector augmented-wave + core cor, Zval =  4.0
     Generated using "atomic" code by A. Dal Corso  v.6.0 svn rev. 13079
     Shape of augmentation charge: PSQ
     Using radial grid of 1073 points,  4 beta functions with: 
                l(1) =   0
                l(2) =   0
                l(3) =   1
                l(4) =   1
     Q(r) pseudized with 0 coefficients 


     PseudoPot. # 2 for  H read from file:
     ./pseudo/H.pbesol-kjpaw_psl.0.1.UPF
     MD5 check sum: 27a6b98f1514c59d399e798f1258b8b7
     Pseudo is Projector augmented-wave, Zval =  1.0
     Generated using "atomic" code by A. Dal Corso  v.5.0.2 svn rev. 9415
     Shape of augmentation charge: PSQ
     Using radial grid of  929 points,  2 beta functions with: 
                l(1) =   0
                l(2) =   0
     Q(r) pseudized with 0 coefficients 


     PseudoPot. # 3 for  N read from file:
     ./pseudo/N.pbesol-n-kjpaw_psl.0.1.UPF
     MD5 check sum: 15bd223d5d75e9eda893d0f4e6bdad1b
     Pseudo is Projector augmented-wave + core cor, Zval =  5.0
     Generated using "atomic" code by A. Dal Corso  v.6.3
     Shape of augmentation charge: PSQ
     Using radial grid of 1085 points,  4 beta functions with: 
                l(1) =   0
                l(2) =   0
                l(3) =   1
                l(4) =   1
     Q(r) pseudized with 0 coefficients 


     PseudoPot. # 4 for  O read from file:
     ./pseudo/O.pbesol-n-kjpaw_psl.0.1.UPF
     MD5 check sum: 81d73d1479e654e5638b0319f0d6c2c7
     Pseudo is Projector augmented-wave + core cor, Zval =  6.0
     Generated using "atomic" code by A. Dal Corso  v.6.0 svn rev. 13079
     Shape of augmentation charge: BESSEL
     Using radial grid of 1095 points,  4 beta functions with: 
                l(1) =   0
                l(2) =   0
                l(3) =   1
                l(4) =   1
     Q(r) pseudized with 0 coefficients 


     atomic species   valence    mass     pseudopotential
        C              4.00    12.01070      C( 1.00)
        H              1.00     1.00794      H( 1.00)
        N              5.00    14.00670      N( 1.00)
        O              6.00    15.99940      O( 1.00)

     No symmetry found



   Cartesian axes

     site n.     atom                  positions (alat units)
         1           H   tau(   1) = (   0.6590510   0.8635640   0.7850250  )
         2           H   tau(   2) = (   0.6030540   0.9000000   0.6637950  )
         3           H   tau(   3) = (   0.7401510   0.7250390   0.7055200  )
         4           H   tau(   4) = (   0.7513170   0.7375490   0.5035260  )
         5           H   tau(   5) = (   0.5660300   0.6326900   0.7829260  )
         6           H   tau(   6) = (   0.6292480   0.5594820   0.6669850  )
         7           H   tau(   7) = (   0.4522720   0.5637630   0.6245880  )
         8           H   tau(   8) = (   0.6651800   0.2951100   0.4626400  )
         9           H   tau(   9) = (   0.4817400   0.2682440   0.4519780  )
        10           H   tau(  10) = (   0.5842480   0.1604470   0.2350400  )
        11           H   tau(  11) = (   0.4064330   0.3194560   0.2416730  )
        12           H   tau(  12) = (   0.5143140   0.4247350   0.2645920  )
        13           H   tau(  13) = (   0.4003880   0.4353970   0.4581070  )
        14           H   tau(  14) = (   0.2896530   0.3946800   0.3648340  )
        15           H   tau(  15) = (   0.6380630   0.4060130   0.3843110  )
        16           H   tau(  16) = (   0.2853710   0.6493130   0.2155630  )
        17           H   tau(  17) = (   0.2486830   0.5070940   0.2149750  )
        18           C   tau(  18) = (   0.6572040   0.7383040   0.6691680  )
        19           C   tau(  19) = (   0.6704690   0.7541710   0.5429850  )
        20           C   tau(  20) = (   0.5838280   0.6344530   0.6931790  )
        21           C   tau(  21) = (   0.5211980   0.2811730   0.3703750  )
        22           C   tau(  22) = (   0.5245570   0.1722850   0.3033790  )
        23           C   tau(  23) = (   0.4551260   0.3666390   0.3031270  )
        24           C   tau(  24) = (   0.3721800   0.4338020   0.3710460  )
        25           C   tau(  25) = (   0.3648760   0.5525130   0.3290690  )
        26           N   tau(  26) = (   0.6091830   0.8381260   0.7213870  )
        27           N   tau(  27) = (   0.6368040   0.3213040   0.3871650  )
        28           N   tau(  28) = (   0.2942700   0.5710670   0.2469620  )
        29           O   tau(  29) = (   0.5907130   0.7856540   0.4848880  )
        30           O   tau(  30) = (   0.4801450   0.6386510   0.6354180  )
        31           O   tau(  31) = (   0.4589880   0.1000000   0.3287330  )
        32           O   tau(  32) = (   0.4210410   0.6265610   0.3706270  )

     number of k points=    14
                       cart. coord. in units 2pi/alat
        k(    1) = (   0.0000000   0.0000000   0.0000000), wk =   0.0740741
        k(    2) = (   0.0000000   0.0000000   0.3333333), wk =   0.1481481
        k(    3) = (   0.0000000   0.3333333   0.3333333), wk =   0.1481481
        k(    4) = (   0.3333333   0.3333333   0.3333333), wk =   0.1481481
        k(    5) = (   0.3333333   0.0000000   0.0000000), wk =   0.1481481
        k(    6) = (   0.0000000   0.3333333   0.0000000), wk =   0.1481481
        k(    7) = (   0.0000000  -0.3333333   0.3333333), wk =   0.1481481
        k(    8) = (   0.3333333   0.0000000  -0.3333333), wk =   0.1481481
        k(    9) = (  -0.3333333   0.0000000  -0.3333333), wk =   0.1481481
        k(   10) = (   0.3333333  -0.3333333   0.0000000), wk =   0.1481481
        k(   11) = (  -0.3333333  -0.3333333   0.0000000), wk =   0.1481481
        k(   12) = (  -0.3333333  -0.3333333   0.3333333), wk =   0.1481481
        k(   13) = (  -0.3333333   0.3333333  -0.3333333), wk =   0.1481481
        k(   14) = (   0.3333333  -0.3333333  -0.3333333), wk =   0.1481481

     Dense  grid:  2025049 G-vectors     FFT dimensions: ( 160, 160, 160)

     Smooth grid:   716183 G-vectors     FFT dimensions: ( 120, 120, 120)

     Largest allocated arrays     est. size (Mb)     dimensions
        Kohn-Sham Wavefunctions         7.52 Mb     (   11199,   44)
        NL pseudopotentials            26.32 Mb     (   11199,  154)
        Each V/rho on FFT grid          7.81 Mb     (  512000)
        Each G-vector array             1.93 Mb     (  253133)
        G-vector shells                 0.04 Mb     (    5123)
     Largest temporary arrays     est. size (Mb)     dimensions
        Auxiliary wavefunctions        30.08 Mb     (   11199,  176)
        Each subspace H/S matrix        0.12 Mb     (      88,   88)
        Each <psi_i|beta_j> matrix      0.10 Mb     (     154,   44)
        Arrays for rho mixing          62.50 Mb     (  512000,    8)

     Initial potential from superposition of free atoms
     Check: negative starting charge=   -0.000206

     starting charge   87.99945, renormalised to   88.00000

     negative rho (up, down):  2.058E-04 0.000E+00
     Starting wfc are   77 randomized atomic wfcs
     Checking if some PAW data can be deallocated... 

     total cpu time spent up to now is       86.9 secs

     per-process dynamical memory:   264.5 Mb

     Self-consistent Calculation

     iteration #  1     ecut=    60.00 Ry     beta=0.40
     Davidson diagonalization with overlap
     ethr =  1.00E-02,  avg # of iterations =  2.0

     negative rho (up, down):  3.404E-04 0.000E+00

     total cpu time spent up to now is      257.4 secs

     total energy              =    -412.01020358 Ry
     Harris-Foulkes estimate   =    -414.00563419 Ry
     estimated scf accuracy    <       4.10732657 Ry

     iteration #  2     ecut=    60.00 Ry     beta=0.40
     Davidson diagonalization with overlap
     ethr =  4.67E-03,  avg # of iterations =  3.0

     negative rho (up, down):  4.565E-04 0.000E+00

     total cpu time spent up to now is      418.7 secs

     total energy              =    -412.57406271 Ry
     Harris-Foulkes estimate   =    -412.73946138 Ry
     estimated scf accuracy    <       0.45723743 Ry

     iteration #  3     ecut=    60.00 Ry     beta=0.40
     Davidson diagonalization with overlap
     ethr =  5.20E-04,  avg # of iterations =  4.0

     negative rho (up, down):  5.977E-04 0.000E+00

     total cpu time spent up to now is      555.7 secs

     total energy              =    -412.58377450 Ry
     Harris-Foulkes estimate   =    -412.63793275 Ry
     estimated scf accuracy    <       0.14615229 Ry

     iteration #  4     ecut=    60.00 Ry     beta=0.40
     Davidson diagonalization with overlap
     ethr =  1.66E-04,  avg # of iterations =  4.0

     negative rho (up, down):  7.295E-04 0.000E+00

     total cpu time spent up to now is      687.9 secs

     total energy              =    -412.59062145 Ry
     Harris-Foulkes estimate   =    -412.60256711 Ry
     estimated scf accuracy    <       0.03259224 Ry

     iteration #  5     ecut=    60.00 Ry     beta=0.40
     Davidson diagonalization with overlap
     ethr =  3.70E-05,  avg # of iterations =  4.0

     negative rho (up, down):  7.412E-04 0.000E+00

     total cpu time spent up to now is      836.5 secs

     total energy              =    -412.59413640 Ry
     Harris-Foulkes estimate   =    -412.59542195 Ry
     estimated scf accuracy    <       0.00288620 Ry

     iteration #  6     ecut=    60.00 Ry     beta=0.40
     Davidson diagonalization with overlap
     ethr =  3.28E-06,  avg # of iterations =  3.6

     negative rho (up, down):  7.483E-04 0.000E+00

     total cpu time spent up to now is     1008.9 secs

     total energy              =    -412.59475972 Ry
     Harris-Foulkes estimate   =    -412.59493651 Ry
     estimated scf accuracy    <       0.00052984 Ry

     iteration #  7     ecut=    60.00 Ry     beta=0.40
     Davidson diagonalization with overlap
     ethr =  6.02E-07,  avg # of iterations =  4.0

     negative rho (up, down):  7.442E-04 0.000E+00

     total cpu time spent up to now is     1160.7 secs

     total energy              =    -412.59483133 Ry
     Harris-Foulkes estimate   =    -412.59488558 Ry
     estimated scf accuracy    <       0.00014258 Ry

     iteration #  8     ecut=    60.00 Ry     beta=0.40
     Davidson diagonalization with overlap
     ethr =  1.62E-07,  avg # of iterations =  3.0

     negative rho (up, down):  7.414E-04 0.000E+00

     total cpu time spent up to now is     1313.0 secs

     total energy              =    -412.59485815 Ry
     Harris-Foulkes estimate   =    -412.59485987 Ry
     estimated scf accuracy    <       0.00001439 Ry

     iteration #  9     ecut=    60.00 Ry     beta=0.40
     Davidson diagonalization with overlap
     ethr =  1.64E-08,  avg # of iterations =  2.0

     negative rho (up, down):  7.402E-04 0.000E+00

     total cpu time spent up to now is     1459.7 secs

     total energy              =    -412.59485985 Ry
     Harris-Foulkes estimate   =    -412.59486039 Ry
     estimated scf accuracy    <       0.00000329 Ry

     iteration # 10     ecut=    60.00 Ry     beta=0.40
     Davidson diagonalization with overlap
     ethr =  3.74E-09,  avg # of iterations =  3.2

     negative rho (up, down):  7.394E-04 0.000E+00

     total cpu time spent up to now is     1610.0 secs

     total energy              =    -412.59486058 Ry
     Harris-Foulkes estimate   =    -412.59486061 Ry
     estimated scf accuracy    <       0.00000050 Ry

     iteration # 11     ecut=    60.00 Ry     beta=0.40
     Davidson diagonalization with overlap
     ethr =  5.70E-10,  avg # of iterations =  3.8

     negative rho (up, down):  7.400E-04 0.000E+00

     total cpu time spent up to now is     1760.5 secs

     End of self-consistent calculation

          k = 0.0000 0.0000 0.0000 ( 89583 PWs)   bands (ev):

   -25.2612 -24.9041 -24.6315 -24.2088 -21.8843 -21.5774 -21.1507 -18.9963
   -17.2184 -16.7787 -14.8761 -14.7714 -13.7296 -13.2460 -12.6435 -12.5888
   -12.1397 -11.8650 -11.2320 -11.1808 -10.6614 -10.4694 -10.4390  -9.8156
    -9.6449  -9.3284  -9.2127  -9.0876  -8.9481  -8.7107  -8.5000  -8.2075
    -7.8068  -7.7507  -7.6556  -7.4947  -6.6716  -5.5059  -5.2186  -5.1208
    -4.8304  -4.5729  -4.3545  -4.0490

          k = 0.0000 0.0000 0.3333 ( 89496 PWs)   bands (ev):

   -25.2612 -24.9041 -24.6315 -24.2088 -21.8843 -21.5774 -21.1507 -18.9963
   -17.2184 -16.7787 -14.8761 -14.7714 -13.7296 -13.2460 -12.6435 -12.5888
   -12.1397 -11.8650 -11.2320 -11.1808 -10.6614 -10.4695 -10.4390  -9.8155
    -9.6449  -9.3284  -9.2128  -9.0875  -8.9481  -8.7107  -8.5000  -8.2075
    -7.8068  -7.7507  -7.6556  -7.4947  -6.6716  -5.5058  -5.2186  -5.1208
    -4.8304  -4.5729  -4.3545  -4.0489

          k = 0.0000 0.3333 0.3333 ( 89569 PWs)   bands (ev):

   -25.2612 -24.9041 -24.6315 -24.2088 -21.8843 -21.5774 -21.1507 -18.9963
   -17.2184 -16.7787 -14.8761 -14.7714 -13.7296 -13.2460 -12.6434 -12.5889
   -12.1396 -11.8650 -11.2321 -11.1807 -10.6612 -10.4694 -10.4386  -9.8163
    -9.6448  -9.3293  -9.2123  -9.0876  -8.9481  -8.7105  -8.4996  -8.2065
    -7.8066  -7.7558  -7.6518  -7.4947  -6.6716  -5.5058  -5.2186  -5.1207
    -4.8306  -4.5706  -4.3567  -4.0490

          k = 0.3333 0.3333 0.3333 ( 89537 PWs)   bands (ev):

   -25.2612 -24.9041 -24.6315 -24.2088 -21.8843 -21.5774 -21.1507 -18.9963
   -17.2184 -16.7787 -14.8761 -14.7714 -13.7296 -13.2460 -12.6434 -12.5889
   -12.1396 -11.8650 -11.2321 -11.1807 -10.6612 -10.4694 -10.4386  -9.8163
    -9.6448  -9.3293  -9.2123  -9.0876  -8.9481  -8.7104  -8.4996  -8.2065
    -7.8066  -7.7558  -7.6518  -7.4947  -6.6716  -5.5058  -5.2186  -5.1207
    -4.8306  -4.5706  -4.3567  -4.0490

          k = 0.3333 0.0000 0.0000 ( 89496 PWs)   bands (ev):

   -25.2612 -24.9041 -24.6315 -24.2088 -21.8843 -21.5774 -21.1507 -18.9963
   -17.2184 -16.7787 -14.8761 -14.7714 -13.7296 -13.2460 -12.6435 -12.5888
   -12.1397 -11.8650 -11.2320 -11.1808 -10.6614 -10.4694 -10.4390  -9.8156
    -9.6449  -9.3284  -9.2128  -9.0876  -8.9481  -8.7107  -8.5000  -8.2075
    -7.8068  -7.7507  -7.6556  -7.4947  -6.6716  -5.5059  -5.2186  -5.1208
    -4.8304  -4.5729  -4.3544  -4.0490

          k = 0.0000 0.3333 0.0000 ( 89496 PWs)   bands (ev):

   -25.2612 -24.9041 -24.6315 -24.2088 -21.8843 -21.5774 -21.1507 -18.9963
   -17.2184 -16.7787 -14.8761 -14.7714 -13.7296 -13.2460 -12.6434 -12.5889
   -12.1397 -11.8650 -11.2321 -11.1807 -10.6612 -10.4694 -10.4386  -9.8163
    -9.6448  -9.3293  -9.2123  -9.0876  -8.9481  -8.7105  -8.4996  -8.2065
    -7.8066  -7.7558  -7.6518  -7.4947  -6.6716  -5.5059  -5.2186  -5.1207
    -4.8305  -4.5706  -4.3567  -4.0492

          k = 0.0000-0.3333 0.3333 ( 89569 PWs)   bands (ev):

   -25.2612 -24.9041 -24.6315 -24.2088 -21.8843 -21.5774 -21.1507 -18.9963
   -17.2184 -16.7787 -14.8761 -14.7714 -13.7296 -13.2460 -12.6434 -12.5889
   -12.1397 -11.8650 -11.2321 -11.1807 -10.6612 -10.4694 -10.4386  -9.8163
    -9.6448  -9.3293  -9.2123  -9.0876  -8.9481  -8.7105  -8.4996  -8.2065
    -7.8066  -7.7558  -7.6518  -7.4947  -6.6716  -5.5058  -5.2186  -5.1207
    -4.8306  -4.5706  -4.3567  -4.0490

          k = 0.3333 0.0000-0.3333 ( 89569 PWs)   bands (ev):

   -25.2612 -24.9041 -24.6315 -24.2088 -21.8843 -21.5774 -21.1507 -18.9963
   -17.2184 -16.7787 -14.8761 -14.7714 -13.7296 -13.2460 -12.6435 -12.5888
   -12.1397 -11.8650 -11.2320 -11.1808 -10.6614 -10.4695 -10.4390  -9.8156
    -9.6450  -9.3284  -9.2128  -9.0876  -8.9481  -8.7107  -8.5000  -8.2075
    -7.8068  -7.7507  -7.6556  -7.4947  -6.6716  -5.5059  -5.2187  -5.1208
    -4.8304  -4.5729  -4.3545  -4.0489

          k =-0.3333 0.0000-0.3333 ( 89569 PWs)   bands (ev):

   -25.2612 -24.9041 -24.6315 -24.2088 -21.8843 -21.5774 -21.1507 -18.9963
   -17.2184 -16.7787 -14.8761 -14.7714 -13.7296 -13.2460 -12.6435 -12.5888
   -12.1397 -11.8650 -11.2320 -11.1808 -10.6614 -10.4695 -10.4390  -9.8156
    -9.6450  -9.3284  -9.2128  -9.0876  -8.9481  -8.7107  -8.5000  -8.2075
    -7.8068  -7.7507  -7.6556  -7.4947  -6.6716  -5.5059  -5.2187  -5.1208
    -4.8304  -4.5729  -4.3545  -4.0489

          k = 0.3333-0.3333 0.0000 ( 89569 PWs)   bands (ev):

   -25.2612 -24.9041 -24.6315 -24.2088 -21.8843 -21.5774 -21.1507 -18.9963
   -17.2184 -16.7787 -14.8761 -14.7714 -13.7296 -13.2460 -12.6434 -12.5889
   -12.1397 -11.8650 -11.2321 -11.1807 -10.6612 -10.4694 -10.4386  -9.8163
    -9.6448  -9.3293  -9.2123  -9.0876  -8.9481  -8.7104  -8.4996  -8.2065
    -7.8066  -7.7558  -7.6518  -7.4947  -6.6716  -5.5059  -5.2186  -5.1207
    -4.8305  -4.5706  -4.3567  -4.0492

          k =-0.3333-0.3333 0.0000 ( 89569 PWs)   bands (ev):

   -25.2612 -24.9041 -24.6315 -24.2088 -21.8843 -21.5774 -21.1507 -18.9963
   -17.2184 -16.7787 -14.8761 -14.7714 -13.7296 -13.2460 -12.6434 -12.5889
   -12.1397 -11.8650 -11.2321 -11.1807 -10.6612 -10.4694 -10.4386  -9.8163
    -9.6448  -9.3293  -9.2123  -9.0876  -8.9481  -8.7105  -8.4996  -8.2065
    -7.8066  -7.7558  -7.6518  -7.4947  -6.6716  -5.5059  -5.2186  -5.1207
    -4.8305  -4.5706  -4.3567  -4.0492

          k =-0.3333-0.3333 0.3333 ( 89537 PWs)   bands (ev):

   -25.2612 -24.9041 -24.6315 -24.2088 -21.8843 -21.5774 -21.1507 -18.9963
   -17.2184 -16.7787 -14.8761 -14.7714 -13.7296 -13.2460 -12.6434 -12.5889
   -12.1396 -11.8650 -11.2321 -11.1807 -10.6612 -10.4694 -10.4386  -9.8163
    -9.6448  -9.3293  -9.2123  -9.0876  -8.9481  -8.7104  -8.4996  -8.2065
    -7.8066  -7.7558  -7.6518  -7.4947  -6.6716  -5.5058  -5.2186  -5.1207
    -4.8306  -4.5706  -4.3567  -4.0490

          k =-0.3333 0.3333-0.3333 ( 89537 PWs)   bands (ev):

   -25.2612 -24.9041 -24.6315 -24.2088 -21.8843 -21.5774 -21.1507 -18.9963
   -17.2184 -16.7787 -14.8761 -14.7714 -13.7296 -13.2460 -12.6434 -12.5889
   -12.1396 -11.8650 -11.2321 -11.1807 -10.6612 -10.4694 -10.4386  -9.8163
    -9.6448  -9.3293  -9.2123  -9.0876  -8.9481  -8.7104  -8.4996  -8.2065
    -7.8066  -7.7558  -7.6518  -7.4947  -6.6716  -5.5058  -5.2186  -5.1207
    -4.8306  -4.5706  -4.3567  -4.0490

          k = 0.3333-0.3333-0.3333 ( 89537 PWs)   bands (ev):

   -25.2612 -24.9041 -24.6315 -24.2088 -21.8843 -21.5774 -21.1507 -18.9963
   -17.2184 -16.7787 -14.8761 -14.7714 -13.7296 -13.2460 -12.6434 -12.5889
   -12.1396 -11.8650 -11.2321 -11.1807 -10.6612 -10.4694 -10.4386  -9.8163
    -9.6448  -9.3293  -9.2123  -9.0876  -8.9481  -8.7104  -8.4996  -8.2065
    -7.8066  -7.7558  -7.6518  -7.4947  -6.6716  -5.5058  -5.2186  -5.1207
    -4.8306  -4.5706  -4.3567  -4.0490

     highest occupied level (ev):    -4.0489

!    total energy              =    -412.59486067 Ry
     Harris-Foulkes estimate   =    -412.59486066 Ry
     estimated scf accuracy    <       0.00000004 Ry

     total all-electron energy =     -1554.219762 Ry

     The total energy is the sum of the following terms:

     one-electron contribution =    -976.45387183 Ry
     hartree contribution      =     505.22518141 Ry
     xc contribution           =     -93.92499309 Ry
     ewald contribution        =     259.87034788 Ry
     one-center paw contrib.   =    -107.31152504 Ry

     convergence has been achieved in  11 iterations

     Writing output data file aiida.save

     init_run     :     85.18s CPU     85.82s WALL (       1 calls)
     electrons    :   1659.83s CPU   1673.89s WALL (       1 calls)

     Called by init_run:
     wfcinit      :     72.84s CPU     73.13s WALL (       1 calls)
     potinit      :      2.74s CPU      2.86s WALL (       1 calls)

     Called by electrons:
     c_bands      :   1367.60s CPU   1379.60s WALL (      11 calls)
     sum_band     :    225.49s CPU    227.29s WALL (      11 calls)
     v_of_rho     :     12.96s CPU     13.03s WALL (      12 calls)
     newd         :     51.01s CPU     51.17s WALL (      12 calls)
     mix_rho      :      2.36s CPU      2.38s WALL (      11 calls)

     Called by c_bands:
     init_us_2    :      8.22s CPU      8.34s WALL (     322 calls)
     cegterg      :   1350.86s CPU   1362.38s WALL (     154 calls)

     Called by *egterg:
     h_psi        :    884.96s CPU    888.62s WALL (     680 calls)
     s_psi        :    181.24s CPU    181.47s WALL (     680 calls)
     g_psi        :      1.74s CPU      1.76s WALL (     512 calls)
     cdiaghg      :     11.38s CPU     11.55s WALL (     666 calls)

     Called by h_psi:
     add_vuspsi   :    180.91s CPU    181.35s WALL (     680 calls)

     General routines
     calbec       :    241.75s CPU    242.40s WALL (     834 calls)
     fft          :     14.25s CPU     14.34s WALL (     188 calls)
     ffts         :      0.56s CPU      0.57s WALL (      23 calls)
     fftw         :    506.62s CPU    509.35s WALL (   44828 calls)
     interpolate  :      2.29s CPU      2.34s WALL (      23 calls)
     davcio       :      0.00s CPU      0.14s WALL (      14 calls)

     Parallel routines
     fft_scatter  :    225.45s CPU    226.38s WALL (   45039 calls)

     PAW routines
     PAW_pot      :      4.61s CPU      4.63s WALL (      12 calls)

     PWSCF        : 29m 6.44s CPU    29m21.45s WALL


   This run was terminated on:  12:24: 3   5Jan2023            

=------------------------------------------------------------------------------=
   JOB DONE.
=------------------------------------------------------------------------------=
