
     Program PWSCF v.5.1 starts on  5Jan2023 at 13:49:23 

     This program is part of the open-source Quantum ESPRESSO suite
     for quantum simulation of materials; please cite
         "P. Giannozzi et al., J. Phys.:Condens. Matter 21 395502 (2009);
          URL http://www.quantum-espresso.org", 
     in publications or presentations arising from this work. More details at
     http://www.quantum-espresso.org/quote

     Parallel version (MPI), running on     8 processors
     R & G space division:  proc/nbgrp/npool/nimage =       8
     Waiting for input...
     Reading input from standard input

     Current dimensions of program PWSCF are:
     Max number of different atomic species (ntypx) = 10
     Max number of k-points (npk) =  40000
     Max angular momentum in pseudopotentials (lmaxx) =  3
               file C.pbesol-n-kjpaw_psl.1.0.0.UPF: wavefunction(s)  2S 2P renormalized
               file H.pbesol-kjpaw_psl.0.1.UPF: wavefunction(s)  1S renormalized
               file N.pbesol-n-kjpaw_psl.0.1.UPF: wavefunction(s)  2P renormalized
               file O.pbesol-n-kjpaw_psl.0.1.UPF: wavefunction(s)  2P renormalized

     Subspace diagonalization in iterative solution of the eigenvalue problem:
     scalapack distributed-memory algorithm (size of sub-group:  2*  2 procs)


     Parallelization info
     --------------------
     sticks:   dense  smooth     PW     G-vecs:    dense   smooth      PW
     Min        3625    1810    470               465033   164414   21644
     Max        3626    1811    471               465038   164435   21647
     Sum       29005   14485   3761              3720285  1315387  173157



     bravais-lattice index     =            0
     lattice parameter (alat)  =      22.5090  a.u.
     unit-cell volume          =   11404.2970 (a.u.)^3
     number of atoms/cell      =           32
     number of atomic types    =            4
     number of electrons       =        88.00
     number of Kohn-Sham states=           44
     kinetic-energy cutoff     =      90.0000  Ry
     charge density cutoff     =     720.0000  Ry
     convergence threshold     =      1.0E-07
     mixing beta               =       0.4000
     number of iterations used =            8  plain     mixing
     Exchange-correlation      =  SLA  PW   PSX  PSC ( 1  4 10  8 0)

     celldm(1)=  22.508999  celldm(2)=   0.000000  celldm(3)=   0.000000
     celldm(4)=   0.000000  celldm(5)=   0.000000  celldm(6)=   0.000000

     crystal axes: (cart. coord. in units of alat)
               a(1) = (   1.000000   0.000000   0.000000 )  
               a(2) = (   0.000000   1.000000   0.000000 )  
               a(3) = (   0.000000   0.000000   1.000000 )  

     reciprocal axes: (cart. coord. in units 2 pi/alat)
               b(1) = (  1.000000  0.000000  0.000000 )  
               b(2) = (  0.000000  1.000000  0.000000 )  
               b(3) = (  0.000000  0.000000  1.000000 )  


     PseudoPot. # 1 for  C read from file:
     ./pseudo/C.pbesol-n-kjpaw_psl.1.0.0.UPF
     MD5 check sum: 5f3a56537b2bcef3348431d8311bb923
     Pseudo is Projector augmented-wave + core cor, Zval =  4.0
     Generated using "atomic" code by A. Dal Corso  v.6.0 svn rev. 13079
     Shape of augmentation charge: PSQ
     Using radial grid of 1073 points,  4 beta functions with: 
                l(1) =   0
                l(2) =   0
                l(3) =   1
                l(4) =   1
     Q(r) pseudized with 0 coefficients 


     PseudoPot. # 2 for  H read from file:
     ./pseudo/H.pbesol-kjpaw_psl.0.1.UPF
     MD5 check sum: 27a6b98f1514c59d399e798f1258b8b7
     Pseudo is Projector augmented-wave, Zval =  1.0
     Generated using "atomic" code by A. Dal Corso  v.5.0.2 svn rev. 9415
     Shape of augmentation charge: PSQ
     Using radial grid of  929 points,  2 beta functions with: 
                l(1) =   0
                l(2) =   0
     Q(r) pseudized with 0 coefficients 


     PseudoPot. # 3 for  N read from file:
     ./pseudo/N.pbesol-n-kjpaw_psl.0.1.UPF
     MD5 check sum: 15bd223d5d75e9eda893d0f4e6bdad1b
     Pseudo is Projector augmented-wave + core cor, Zval =  5.0
     Generated using "atomic" code by A. Dal Corso  v.6.3
     Shape of augmentation charge: PSQ
     Using radial grid of 1085 points,  4 beta functions with: 
                l(1) =   0
                l(2) =   0
                l(3) =   1
                l(4) =   1
     Q(r) pseudized with 0 coefficients 


     PseudoPot. # 4 for  O read from file:
     ./pseudo/O.pbesol-n-kjpaw_psl.0.1.UPF
     MD5 check sum: 81d73d1479e654e5638b0319f0d6c2c7
     Pseudo is Projector augmented-wave + core cor, Zval =  6.0
     Generated using "atomic" code by A. Dal Corso  v.6.0 svn rev. 13079
     Shape of augmentation charge: BESSEL
     Using radial grid of 1095 points,  4 beta functions with: 
                l(1) =   0
                l(2) =   0
                l(3) =   1
                l(4) =   1
     Q(r) pseudized with 0 coefficients 


     atomic species   valence    mass     pseudopotential
        C              4.00    12.01070      C( 1.00)
        H              1.00     1.00794      H( 1.00)
        N              5.00    14.00670      N( 1.00)
        O              6.00    15.99940      O( 1.00)

     No symmetry found



   Cartesian axes

     site n.     atom                  positions (alat units)
         1           H   tau(   1) = (   0.6590510   0.8635640   0.7850250  )
         2           H   tau(   2) = (   0.6030540   0.9000000   0.6637950  )
         3           H   tau(   3) = (   0.7401510   0.7250390   0.7055200  )
         4           H   tau(   4) = (   0.7513170   0.7375490   0.5035260  )
         5           H   tau(   5) = (   0.5660300   0.6326900   0.7829260  )
         6           H   tau(   6) = (   0.6292480   0.5594820   0.6669850  )
         7           H   tau(   7) = (   0.4522720   0.5637630   0.6245880  )
         8           H   tau(   8) = (   0.6651800   0.2951100   0.4626400  )
         9           H   tau(   9) = (   0.4817400   0.2682440   0.4519780  )
        10           H   tau(  10) = (   0.5842480   0.1604470   0.2350400  )
        11           H   tau(  11) = (   0.4064330   0.3194560   0.2416730  )
        12           H   tau(  12) = (   0.5143140   0.4247350   0.2645920  )
        13           H   tau(  13) = (   0.4003880   0.4353970   0.4581070  )
        14           H   tau(  14) = (   0.2896530   0.3946800   0.3648340  )
        15           H   tau(  15) = (   0.6380630   0.4060130   0.3843110  )
        16           H   tau(  16) = (   0.2853710   0.6493130   0.2155630  )
        17           H   tau(  17) = (   0.2486830   0.5070940   0.2149750  )
        18           C   tau(  18) = (   0.6572040   0.7383040   0.6691680  )
        19           C   tau(  19) = (   0.6704690   0.7541710   0.5429850  )
        20           C   tau(  20) = (   0.5838280   0.6344530   0.6931790  )
        21           C   tau(  21) = (   0.5211980   0.2811730   0.3703750  )
        22           C   tau(  22) = (   0.5245570   0.1722850   0.3033790  )
        23           C   tau(  23) = (   0.4551260   0.3666390   0.3031270  )
        24           C   tau(  24) = (   0.3721800   0.4338020   0.3710460  )
        25           C   tau(  25) = (   0.3648760   0.5525130   0.3290690  )
        26           N   tau(  26) = (   0.6091830   0.8381260   0.7213870  )
        27           N   tau(  27) = (   0.6368040   0.3213040   0.3871650  )
        28           N   tau(  28) = (   0.2942700   0.5710670   0.2469620  )
        29           O   tau(  29) = (   0.5907130   0.7856540   0.4848880  )
        30           O   tau(  30) = (   0.4801450   0.6386510   0.6354180  )
        31           O   tau(  31) = (   0.4589880   0.1000000   0.3287330  )
        32           O   tau(  32) = (   0.4210410   0.6265610   0.3706270  )

     number of k points=    14
                       cart. coord. in units 2pi/alat
        k(    1) = (   0.0000000   0.0000000   0.0000000), wk =   0.0740741
        k(    2) = (   0.0000000   0.0000000   0.3333333), wk =   0.1481481
        k(    3) = (   0.0000000   0.3333333   0.3333333), wk =   0.1481481
        k(    4) = (   0.3333333   0.3333333   0.3333333), wk =   0.1481481
        k(    5) = (   0.3333333   0.0000000   0.0000000), wk =   0.1481481
        k(    6) = (   0.0000000   0.3333333   0.0000000), wk =   0.1481481
        k(    7) = (   0.0000000  -0.3333333   0.3333333), wk =   0.1481481
        k(    8) = (   0.3333333   0.0000000  -0.3333333), wk =   0.1481481
        k(    9) = (  -0.3333333   0.0000000  -0.3333333), wk =   0.1481481
        k(   10) = (   0.3333333  -0.3333333   0.0000000), wk =   0.1481481
        k(   11) = (  -0.3333333  -0.3333333   0.0000000), wk =   0.1481481
        k(   12) = (  -0.3333333  -0.3333333   0.3333333), wk =   0.1481481
        k(   13) = (  -0.3333333   0.3333333  -0.3333333), wk =   0.1481481
        k(   14) = (   0.3333333  -0.3333333  -0.3333333), wk =   0.1481481

     Dense  grid:  3720285 G-vectors     FFT dimensions: ( 200, 200, 200)

     Smooth grid:  1315387 G-vectors     FFT dimensions: ( 135, 135, 135)

     Largest allocated arrays     est. size (Mb)     dimensions
        Kohn-Sham Wavefunctions        13.81 Mb     (   20569,   44)
        NL pseudopotentials            48.33 Mb     (   20569,  154)
        Each V/rho on FFT grid         15.26 Mb     ( 1000000)
        Each G-vector array             3.55 Mb     (  465038)
        G-vector shells                 0.06 Mb     (    7677)
     Largest temporary arrays     est. size (Mb)     dimensions
        Auxiliary wavefunctions        55.24 Mb     (   20569,  176)
        Each subspace H/S matrix        0.12 Mb     (      88,   88)
        Each <psi_i|beta_j> matrix      0.10 Mb     (     154,   44)
        Arrays for rho mixing         122.07 Mb     ( 1000000,    8)

     Initial potential from superposition of free atoms
     Check: negative starting charge=   -0.000121

     starting charge   87.99945, renormalised to   88.00000

     negative rho (up, down):  1.212E-04 0.000E+00
     Starting wfc are   77 randomized atomic wfcs
     Checking if some PAW data can be deallocated... 

     total cpu time spent up to now is      167.0 secs

     per-process dynamical memory:   475.2 Mb

     Self-consistent Calculation

     iteration #  1     ecut=    90.00 Ry     beta=0.40
     Davidson diagonalization with overlap
     ethr =  1.00E-02,  avg # of iterations =  2.0

     negative rho (up, down):  1.806E-04 0.000E+00

     total cpu time spent up to now is      501.7 secs

     total energy              =    -412.01495892 Ry
     Harris-Foulkes estimate   =    -414.00918349 Ry
     estimated scf accuracy    <       4.10400385 Ry

     iteration #  2     ecut=    90.00 Ry     beta=0.40
     Davidson diagonalization with overlap
     ethr =  4.66E-03,  avg # of iterations =  3.0

     negative rho (up, down):  2.382E-04 0.000E+00

     total cpu time spent up to now is      810.2 secs

     total energy              =    -412.58046878 Ry
     Harris-Foulkes estimate   =    -412.74412921 Ry
     estimated scf accuracy    <       0.45318157 Ry

     iteration #  3     ecut=    90.00 Ry     beta=0.40
     Davidson diagonalization with overlap
     ethr =  5.15E-04,  avg # of iterations =  4.0

     negative rho (up, down):  3.229E-04 0.000E+00

     total cpu time spent up to now is     1082.8 secs

     total energy              =    -412.59197496 Ry
     Harris-Foulkes estimate   =    -412.64504204 Ry
     estimated scf accuracy    <       0.14378704 Ry

     iteration #  4     ecut=    90.00 Ry     beta=0.40
     Davidson diagonalization with overlap
     ethr =  1.63E-04,  avg # of iterations =  4.0

     negative rho (up, down):  4.056E-04 0.000E+00

     total cpu time spent up to now is     1328.0 secs

     total energy              =    -412.59765234 Ry
     Harris-Foulkes estimate   =    -412.60947565 Ry
     estimated scf accuracy    <       0.03178963 Ry

     iteration #  5     ecut=    90.00 Ry     beta=0.40
     Davidson diagonalization with overlap
     ethr =  3.61E-05,  avg # of iterations =  4.0

     negative rho (up, down):  4.125E-04 0.000E+00

     total cpu time spent up to now is     1606.3 secs

     total energy              =    -412.60136186 Ry
     Harris-Foulkes estimate   =    -412.60269103 Ry
     estimated scf accuracy    <       0.00292360 Ry

     iteration #  6     ecut=    90.00 Ry     beta=0.40
     Davidson diagonalization with overlap
     ethr =  3.32E-06,  avg # of iterations =  3.9

     negative rho (up, down):  4.173E-04 0.000E+00

     total cpu time spent up to now is     1933.0 secs

     total energy              =    -412.60200930 Ry
     Harris-Foulkes estimate   =    -412.60217744 Ry
     estimated scf accuracy    <       0.00053205 Ry

     iteration #  7     ecut=    90.00 Ry     beta=0.40
     Davidson diagonalization with overlap
     ethr =  6.05E-07,  avg # of iterations =  4.0

     negative rho (up, down):  4.144E-04 0.000E+00

     total cpu time spent up to now is     2236.4 secs

     total energy              =    -412.60208032 Ry
     Harris-Foulkes estimate   =    -412.60212881 Ry
     estimated scf accuracy    <       0.00012947 Ry

     iteration #  8     ecut=    90.00 Ry     beta=0.40
     Davidson diagonalization with overlap
     ethr =  1.47E-07,  avg # of iterations =  4.0

     negative rho (up, down):  4.120E-04 0.000E+00

     total cpu time spent up to now is     2527.8 secs

     total energy              =    -412.60210412 Ry
     Harris-Foulkes estimate   =    -412.60210604 Ry
     estimated scf accuracy    <       0.00001418 Ry

     iteration #  9     ecut=    90.00 Ry     beta=0.40
     Davidson diagonalization with overlap
     ethr =  1.61E-08,  avg # of iterations =  2.8

     negative rho (up, down):  4.110E-04 0.000E+00

     total cpu time spent up to now is     2827.9 secs

     total energy              =    -412.60210625 Ry
     Harris-Foulkes estimate   =    -412.60210655 Ry
     estimated scf accuracy    <       0.00000260 Ry

     iteration # 10     ecut=    90.00 Ry     beta=0.40
     Davidson diagonalization with overlap
     ethr =  2.95E-09,  avg # of iterations =  4.0

     negative rho (up, down):  4.103E-04 0.000E+00

     total cpu time spent up to now is     3127.3 secs

     total energy              =    -412.60210681 Ry
     Harris-Foulkes estimate   =    -412.60210682 Ry
     estimated scf accuracy    <       0.00000047 Ry

     iteration # 11     ecut=    90.00 Ry     beta=0.40
     Davidson diagonalization with overlap
     ethr =  5.36E-10,  avg # of iterations =  3.0

     negative rho (up, down):  4.104E-04 0.000E+00

     total cpu time spent up to now is     3391.9 secs

     End of self-consistent calculation

          k = 0.0000 0.0000 0.0000 (164415 PWs)   bands (ev):

   -25.2596 -24.9024 -24.6298 -24.2069 -21.8839 -21.5774 -21.1505 -18.9965
   -17.2184 -16.7789 -14.8762 -14.7716 -13.7296 -13.2461 -12.6434 -12.5891
   -12.1402 -11.8656 -11.2324 -11.1814 -10.6620 -10.4699 -10.4394  -9.8160
    -9.6453  -9.3289  -9.2131  -9.0880  -8.9485  -8.7112  -8.5002  -8.2078
    -7.8074  -7.7512  -7.6562  -7.4952  -6.6721  -5.5063  -5.2192  -5.1214
    -4.8308  -4.5734  -4.3550  -4.0496

          k = 0.0000 0.0000 0.3333 (164448 PWs)   bands (ev):

   -25.2596 -24.9024 -24.6298 -24.2069 -21.8839 -21.5774 -21.1505 -18.9965
   -17.2184 -16.7789 -14.8762 -14.7716 -13.7296 -13.2461 -12.6434 -12.5891
   -12.1402 -11.8656 -11.2324 -11.1814 -10.6620 -10.4699 -10.4394  -9.8160
    -9.6453  -9.3289  -9.2131  -9.0880  -8.9486  -8.7112  -8.5002  -8.2079
    -7.8074  -7.7512  -7.6562  -7.4952  -6.6721  -5.5062  -5.2192  -5.1215
    -4.8308  -4.5735  -4.3550  -4.0494

          k = 0.0000 0.3333 0.3333 (164442 PWs)   bands (ev):

   -25.2596 -24.9024 -24.6298 -24.2069 -21.8839 -21.5774 -21.1505 -18.9965
   -17.2184 -16.7789 -14.8762 -14.7715 -13.7296 -13.2461 -12.6434 -12.5891
   -12.1402 -11.8656 -11.2326 -11.1813 -10.6619 -10.4699 -10.4390  -9.8168
    -9.6452  -9.3297  -9.2127  -9.0880  -8.9486  -8.7110  -8.4997  -8.2068
    -7.8072  -7.7564  -7.6523  -7.4953  -6.6721  -5.5062  -5.2191  -5.1213
    -4.8310  -4.5712  -4.3573  -4.0496

          k = 0.3333 0.3333 0.3333 (164442 PWs)   bands (ev):

   -25.2596 -24.9024 -24.6298 -24.2069 -21.8839 -21.5774 -21.1505 -18.9965
   -17.2184 -16.7789 -14.8762 -14.7715 -13.7296 -13.2461 -12.6434 -12.5891
   -12.1402 -11.8656 -11.2326 -11.1813 -10.6619 -10.4699 -10.4390  -9.8168
    -9.6452  -9.3297  -9.2127  -9.0880  -8.9486  -8.7110  -8.4997  -8.2068
    -7.8072  -7.7564  -7.6523  -7.4953  -6.6721  -5.5062  -5.2191  -5.1214
    -4.8310  -4.5712  -4.3573  -4.0496

          k = 0.3333 0.0000 0.0000 (164448 PWs)   bands (ev):

   -25.2596 -24.9024 -24.6298 -24.2069 -21.8839 -21.5774 -21.1505 -18.9965
   -17.2184 -16.7789 -14.8762 -14.7716 -13.7296 -13.2461 -12.6434 -12.5891
   -12.1402 -11.8656 -11.2324 -11.1814 -10.6620 -10.4699 -10.4394  -9.8160
    -9.6453  -9.3289  -9.2131  -9.0880  -8.9485  -8.7112  -8.5002  -8.2079
    -7.8074  -7.7512  -7.6562  -7.4952  -6.6721  -5.5063  -5.2192  -5.1214
    -4.8308  -4.5734  -4.3550  -4.0496

          k = 0.0000 0.3333 0.0000 (164448 PWs)   bands (ev):

   -25.2596 -24.9024 -24.6298 -24.2069 -21.8839 -21.5774 -21.1505 -18.9965
   -17.2184 -16.7789 -14.8762 -14.7715 -13.7296 -13.2461 -12.6434 -12.5891
   -12.1402 -11.8656 -11.2326 -11.1813 -10.6619 -10.4698 -10.4390  -9.8168
    -9.6452  -9.3297  -9.2127  -9.0880  -8.9486  -8.7110  -8.4998  -8.2068
    -7.8072  -7.7564  -7.6523  -7.4953  -6.6721  -5.5062  -5.2191  -5.1213
    -4.8309  -4.5712  -4.3572  -4.0497

          k = 0.0000-0.3333 0.3333 (164442 PWs)   bands (ev):

   -25.2596 -24.9024 -24.6298 -24.2069 -21.8839 -21.5774 -21.1505 -18.9965
   -17.2184 -16.7789 -14.8762 -14.7715 -13.7296 -13.2461 -12.6434 -12.5891
   -12.1402 -11.8656 -11.2326 -11.1813 -10.6619 -10.4699 -10.4390  -9.8168
    -9.6452  -9.3297  -9.2127  -9.0880  -8.9486  -8.7110  -8.4997  -8.2068
    -7.8072  -7.7564  -7.6523  -7.4953  -6.6721  -5.5062  -5.2191  -5.1213
    -4.8310  -4.5712  -4.3573  -4.0496

          k = 0.3333 0.0000-0.3333 (164442 PWs)   bands (ev):

   -25.2596 -24.9024 -24.6298 -24.2069 -21.8839 -21.5774 -21.1505 -18.9965
   -17.2184 -16.7789 -14.8762 -14.7716 -13.7296 -13.2461 -12.6434 -12.5891
   -12.1402 -11.8656 -11.2324 -11.1814 -10.6620 -10.4699 -10.4394  -9.8160
    -9.6453  -9.3289  -9.2131  -9.0880  -8.9486  -8.7112  -8.5002  -8.2079
    -7.8074  -7.7512  -7.6562  -7.4952  -6.6721  -5.5062  -5.2192  -5.1215
    -4.8308  -4.5734  -4.3550  -4.0494

          k =-0.3333 0.0000-0.3333 (164442 PWs)   bands (ev):

   -25.2596 -24.9024 -24.6298 -24.2069 -21.8839 -21.5774 -21.1505 -18.9965
   -17.2184 -16.7789 -14.8762 -14.7716 -13.7296 -13.2461 -12.6434 -12.5891
   -12.1402 -11.8656 -11.2324 -11.1814 -10.6620 -10.4699 -10.4394  -9.8160
    -9.6453  -9.3289  -9.2131  -9.0880  -8.9486  -8.7112  -8.5002  -8.2079
    -7.8074  -7.7512  -7.6562  -7.4952  -6.6721  -5.5062  -5.2192  -5.1215
    -4.8308  -4.5734  -4.3550  -4.0494

          k = 0.3333-0.3333 0.0000 (164442 PWs)   bands (ev):

   -25.2596 -24.9024 -24.6298 -24.2069 -21.8839 -21.5774 -21.1505 -18.9965
   -17.2184 -16.7789 -14.8762 -14.7715 -13.7296 -13.2461 -12.6434 -12.5891
   -12.1402 -11.8656 -11.2326 -11.1813 -10.6619 -10.4698 -10.4390  -9.8168
    -9.6452  -9.3297  -9.2127  -9.0880  -8.9485  -8.7110  -8.4998  -8.2068
    -7.8072  -7.7564  -7.6523  -7.4953  -6.6721  -5.5063  -5.2191  -5.1213
    -4.8309  -4.5711  -4.3572  -4.0497

          k =-0.3333-0.3333 0.0000 (164442 PWs)   bands (ev):

   -25.2596 -24.9024 -24.6298 -24.2069 -21.8839 -21.5774 -21.1505 -18.9965
   -17.2184 -16.7789 -14.8762 -14.7715 -13.7296 -13.2461 -12.6434 -12.5891
   -12.1402 -11.8656 -11.2326 -11.1813 -10.6619 -10.4698 -10.4390  -9.8168
    -9.6452  -9.3297  -9.2127  -9.0880  -8.9485  -8.7110  -8.4998  -8.2068
    -7.8072  -7.7564  -7.6523  -7.4953  -6.6721  -5.5063  -5.2191  -5.1213
    -4.8309  -4.5711  -4.3572  -4.0497

          k =-0.3333-0.3333 0.3333 (164442 PWs)   bands (ev):

   -25.2596 -24.9024 -24.6298 -24.2069 -21.8839 -21.5774 -21.1505 -18.9965
   -17.2184 -16.7789 -14.8762 -14.7715 -13.7296 -13.2461 -12.6434 -12.5891
   -12.1402 -11.8656 -11.2326 -11.1813 -10.6619 -10.4699 -10.4390  -9.8168
    -9.6452  -9.3297  -9.2127  -9.0880  -8.9486  -8.7110  -8.4998  -8.2068
    -7.8072  -7.7564  -7.6523  -7.4953  -6.6721  -5.5062  -5.2191  -5.1214
    -4.8310  -4.5712  -4.3573  -4.0496

          k =-0.3333 0.3333-0.3333 (164442 PWs)   bands (ev):

   -25.2596 -24.9024 -24.6298 -24.2069 -21.8839 -21.5774 -21.1505 -18.9965
   -17.2184 -16.7789 -14.8762 -14.7715 -13.7296 -13.2461 -12.6434 -12.5891
   -12.1402 -11.8656 -11.2326 -11.1813 -10.6619 -10.4699 -10.4390  -9.8168
    -9.6452  -9.3297  -9.2127  -9.0880  -8.9486  -8.7110  -8.4998  -8.2068
    -7.8072  -7.7564  -7.6523  -7.4953  -6.6721  -5.5062  -5.2191  -5.1214
    -4.8310  -4.5712  -4.3573  -4.0496

          k = 0.3333-0.3333-0.3333 (164442 PWs)   bands (ev):

   -25.2596 -24.9024 -24.6298 -24.2069 -21.8839 -21.5774 -21.1505 -18.9965
   -17.2184 -16.7789 -14.8762 -14.7715 -13.7296 -13.2461 -12.6434 -12.5891
   -12.1402 -11.8656 -11.2326 -11.1813 -10.6619 -10.4699 -10.4390  -9.8168
    -9.6452  -9.3297  -9.2127  -9.0880  -8.9486  -8.7110  -8.4997  -8.2068
    -7.8072  -7.7564  -7.6523  -7.4953  -6.6721  -5.5062  -5.2191  -5.1214
    -4.8310  -4.5712  -4.3573  -4.0496

     highest occupied level (ev):    -4.0494

!    total energy              =    -412.60210687 Ry
     Harris-Foulkes estimate   =    -412.60210687 Ry
     estimated scf accuracy    <       0.00000004 Ry

     total all-electron energy =     -1554.227008 Ry

     The total energy is the sum of the following terms:

     one-electron contribution =    -976.46651727 Ry
     hartree contribution      =     505.23293885 Ry
     xc contribution           =     -93.92716927 Ry
     ewald contribution        =     259.87034788 Ry
     one-center paw contrib.   =    -107.31170707 Ry

     convergence has been achieved in  11 iterations

     Writing output data file aiida.save

     init_run     :    163.40s CPU    165.91s WALL (       1 calls)
     electrons    :   3149.04s CPU   3225.47s WALL (       1 calls)

     Called by init_run:
     wfcinit      :    140.49s CPU    141.97s WALL (       1 calls)
     potinit      :      4.29s CPU      4.58s WALL (       1 calls)

     Called by electrons:
     c_bands      :   2620.97s CPU   2691.55s WALL (      11 calls)
     sum_band     :    406.63s CPU    410.78s WALL (      11 calls)
     v_of_rho     :     24.92s CPU     25.88s WALL (      12 calls)
     newd         :     94.56s CPU     95.44s WALL (      12 calls)
     mix_rho      :      4.57s CPU      4.76s WALL (      11 calls)

     Called by c_bands:
     init_us_2    :     16.76s CPU     17.26s WALL (     322 calls)
     cegterg      :   2586.22s CPU   2655.07s WALL (     154 calls)

     Called by *egterg:
     h_psi        :   1687.30s CPU   1721.13s WALL (     709 calls)
     s_psi        :    342.78s CPU    348.91s WALL (     709 calls)
     g_psi        :      3.06s CPU      3.17s WALL (     541 calls)
     cdiaghg      :     13.26s CPU     13.49s WALL (     695 calls)

     Called by h_psi:
     add_vuspsi   :    344.39s CPU    351.11s WALL (     709 calls)

     General routines
     calbec       :    466.37s CPU    474.01s WALL (     863 calls)
     fft          :     27.67s CPU     28.19s WALL (     188 calls)
     ffts         :      0.96s CPU      0.97s WALL (      23 calls)
     fftw         :    953.84s CPU    971.14s WALL (   44904 calls)
     interpolate  :      4.32s CPU      4.38s WALL (      23 calls)
     davcio       :      0.01s CPU      0.27s WALL (      14 calls)

     Parallel routines
     fft_scatter  :    448.10s CPU    456.57s WALL (   45115 calls)

     PAW routines
     PAW_pot      :      4.63s CPU      4.68s WALL (      12 calls)

     PWSCF        : 55m14.30s CPU    56m33.78s WALL


   This run was terminated on:  14:45:56   5Jan2023            

=------------------------------------------------------------------------------=
   JOB DONE.
=------------------------------------------------------------------------------=
