
     Program PWSCF v.5.1 starts on  5Jan2023 at 11:15:34 

     This program is part of the open-source Quantum ESPRESSO suite
     for quantum simulation of materials; please cite
         "P. Giannozzi et al., J. Phys.:Condens. Matter 21 395502 (2009);
          URL http://www.quantum-espresso.org", 
     in publications or presentations arising from this work. More details at
     http://www.quantum-espresso.org/quote

     Parallel version (MPI), running on     8 processors
     R & G space division:  proc/nbgrp/npool/nimage =       8
     Waiting for input...
     Reading input from standard input

     Current dimensions of program PWSCF are:
     Max number of different atomic species (ntypx) = 10
     Max number of k-points (npk) =  40000
     Max angular momentum in pseudopotentials (lmaxx) =  3
               file C.pbesol-n-kjpaw_psl.1.0.0.UPF: wavefunction(s)  2S 2P renormalized
               file H.pbesol-kjpaw_psl.0.1.UPF: wavefunction(s)  1S renormalized
               file N.pbesol-n-kjpaw_psl.0.1.UPF: wavefunction(s)  2P renormalized
               file O.pbesol-n-kjpaw_psl.0.1.UPF: wavefunction(s)  2P renormalized

     Subspace diagonalization in iterative solution of the eigenvalue problem:
     scalapack distributed-memory algorithm (size of sub-group:  2*  2 procs)


     Parallelization info
     --------------------
     sticks:   dense  smooth     PW     G-vecs:    dense   smooth      PW
     Min        1614     808    211               137785    48688    6563
     Max        1616     809    212               137786    48705    6566
     Sum       12917    6469   1693              1102285   389567   52515



     bravais-lattice index     =            0
     lattice parameter (alat)  =      22.5090  a.u.
     unit-cell volume          =   11404.2970 (a.u.)^3
     number of atoms/cell      =           32
     number of atomic types    =            4
     number of electrons       =        88.00
     number of Kohn-Sham states=           44
     kinetic-energy cutoff     =      40.0000  Ry
     charge density cutoff     =     320.0000  Ry
     convergence threshold     =      1.0E-07
     mixing beta               =       0.4000
     number of iterations used =            8  plain     mixing
     Exchange-correlation      =  SLA  PW   PSX  PSC ( 1  4 10  8 0)

     celldm(1)=  22.508999  celldm(2)=   0.000000  celldm(3)=   0.000000
     celldm(4)=   0.000000  celldm(5)=   0.000000  celldm(6)=   0.000000

     crystal axes: (cart. coord. in units of alat)
               a(1) = (   1.000000   0.000000   0.000000 )  
               a(2) = (   0.000000   1.000000   0.000000 )  
               a(3) = (   0.000000   0.000000   1.000000 )  

     reciprocal axes: (cart. coord. in units 2 pi/alat)
               b(1) = (  1.000000  0.000000  0.000000 )  
               b(2) = (  0.000000  1.000000  0.000000 )  
               b(3) = (  0.000000  0.000000  1.000000 )  


     PseudoPot. # 1 for  C read from file:
     ./pseudo/C.pbesol-n-kjpaw_psl.1.0.0.UPF
     MD5 check sum: 5f3a56537b2bcef3348431d8311bb923
     Pseudo is Projector augmented-wave + core cor, Zval =  4.0
     Generated using "atomic" code by A. Dal Corso  v.6.0 svn rev. 13079
     Shape of augmentation charge: PSQ
     Using radial grid of 1073 points,  4 beta functions with: 
                l(1) =   0
                l(2) =   0
                l(3) =   1
                l(4) =   1
     Q(r) pseudized with 0 coefficients 


     PseudoPot. # 2 for  H read from file:
     ./pseudo/H.pbesol-kjpaw_psl.0.1.UPF
     MD5 check sum: 27a6b98f1514c59d399e798f1258b8b7
     Pseudo is Projector augmented-wave, Zval =  1.0
     Generated using "atomic" code by A. Dal Corso  v.5.0.2 svn rev. 9415
     Shape of augmentation charge: PSQ
     Using radial grid of  929 points,  2 beta functions with: 
                l(1) =   0
                l(2) =   0
     Q(r) pseudized with 0 coefficients 


     PseudoPot. # 3 for  N read from file:
     ./pseudo/N.pbesol-n-kjpaw_psl.0.1.UPF
     MD5 check sum: 15bd223d5d75e9eda893d0f4e6bdad1b
     Pseudo is Projector augmented-wave + core cor, Zval =  5.0
     Generated using "atomic" code by A. Dal Corso  v.6.3
     Shape of augmentation charge: PSQ
     Using radial grid of 1085 points,  4 beta functions with: 
                l(1) =   0
                l(2) =   0
                l(3) =   1
                l(4) =   1
     Q(r) pseudized with 0 coefficients 


     PseudoPot. # 4 for  O read from file:
     ./pseudo/O.pbesol-n-kjpaw_psl.0.1.UPF
     MD5 check sum: 81d73d1479e654e5638b0319f0d6c2c7
     Pseudo is Projector augmented-wave + core cor, Zval =  6.0
     Generated using "atomic" code by A. Dal Corso  v.6.0 svn rev. 13079
     Shape of augmentation charge: BESSEL
     Using radial grid of 1095 points,  4 beta functions with: 
                l(1) =   0
                l(2) =   0
                l(3) =   1
                l(4) =   1
     Q(r) pseudized with 0 coefficients 


     atomic species   valence    mass     pseudopotential
        C              4.00    12.01070      C( 1.00)
        H              1.00     1.00794      H( 1.00)
        N              5.00    14.00670      N( 1.00)
        O              6.00    15.99940      O( 1.00)

     No symmetry found



   Cartesian axes

     site n.     atom                  positions (alat units)
         1           H   tau(   1) = (   0.6590510   0.8635640   0.7850250  )
         2           H   tau(   2) = (   0.6030540   0.9000000   0.6637950  )
         3           H   tau(   3) = (   0.7401510   0.7250390   0.7055200  )
         4           H   tau(   4) = (   0.7513170   0.7375490   0.5035260  )
         5           H   tau(   5) = (   0.5660300   0.6326900   0.7829260  )
         6           H   tau(   6) = (   0.6292480   0.5594820   0.6669850  )
         7           H   tau(   7) = (   0.4522720   0.5637630   0.6245880  )
         8           H   tau(   8) = (   0.6651800   0.2951100   0.4626400  )
         9           H   tau(   9) = (   0.4817400   0.2682440   0.4519780  )
        10           H   tau(  10) = (   0.5842480   0.1604470   0.2350400  )
        11           H   tau(  11) = (   0.4064330   0.3194560   0.2416730  )
        12           H   tau(  12) = (   0.5143140   0.4247350   0.2645920  )
        13           H   tau(  13) = (   0.4003880   0.4353970   0.4581070  )
        14           H   tau(  14) = (   0.2896530   0.3946800   0.3648340  )
        15           H   tau(  15) = (   0.6380630   0.4060130   0.3843110  )
        16           H   tau(  16) = (   0.2853710   0.6493130   0.2155630  )
        17           H   tau(  17) = (   0.2486830   0.5070940   0.2149750  )
        18           C   tau(  18) = (   0.6572040   0.7383040   0.6691680  )
        19           C   tau(  19) = (   0.6704690   0.7541710   0.5429850  )
        20           C   tau(  20) = (   0.5838280   0.6344530   0.6931790  )
        21           C   tau(  21) = (   0.5211980   0.2811730   0.3703750  )
        22           C   tau(  22) = (   0.5245570   0.1722850   0.3033790  )
        23           C   tau(  23) = (   0.4551260   0.3666390   0.3031270  )
        24           C   tau(  24) = (   0.3721800   0.4338020   0.3710460  )
        25           C   tau(  25) = (   0.3648760   0.5525130   0.3290690  )
        26           N   tau(  26) = (   0.6091830   0.8381260   0.7213870  )
        27           N   tau(  27) = (   0.6368040   0.3213040   0.3871650  )
        28           N   tau(  28) = (   0.2942700   0.5710670   0.2469620  )
        29           O   tau(  29) = (   0.5907130   0.7856540   0.4848880  )
        30           O   tau(  30) = (   0.4801450   0.6386510   0.6354180  )
        31           O   tau(  31) = (   0.4589880   0.1000000   0.3287330  )
        32           O   tau(  32) = (   0.4210410   0.6265610   0.3706270  )

     number of k points=    14
                       cart. coord. in units 2pi/alat
        k(    1) = (   0.0000000   0.0000000   0.0000000), wk =   0.0740741
        k(    2) = (   0.0000000   0.0000000   0.3333333), wk =   0.1481481
        k(    3) = (   0.0000000   0.3333333   0.3333333), wk =   0.1481481
        k(    4) = (   0.3333333   0.3333333   0.3333333), wk =   0.1481481
        k(    5) = (   0.3333333   0.0000000   0.0000000), wk =   0.1481481
        k(    6) = (   0.0000000   0.3333333   0.0000000), wk =   0.1481481
        k(    7) = (   0.0000000  -0.3333333   0.3333333), wk =   0.1481481
        k(    8) = (   0.3333333   0.0000000  -0.3333333), wk =   0.1481481
        k(    9) = (  -0.3333333   0.0000000  -0.3333333), wk =   0.1481481
        k(   10) = (   0.3333333  -0.3333333   0.0000000), wk =   0.1481481
        k(   11) = (  -0.3333333  -0.3333333   0.0000000), wk =   0.1481481
        k(   12) = (  -0.3333333  -0.3333333   0.3333333), wk =   0.1481481
        k(   13) = (  -0.3333333   0.3333333  -0.3333333), wk =   0.1481481
        k(   14) = (   0.3333333  -0.3333333  -0.3333333), wk =   0.1481481

     Dense  grid:  1102285 G-vectors     FFT dimensions: ( 135, 135, 135)

     Smooth grid:   389567 G-vectors     FFT dimensions: (  96,  96,  96)

     Largest allocated arrays     est. size (Mb)     dimensions
        Kohn-Sham Wavefunctions         4.11 Mb     (    6115,   44)
        NL pseudopotentials            14.37 Mb     (    6115,  154)
        Each V/rho on FFT grid          4.73 Mb     (  309825)
        Each G-vector array             1.05 Mb     (  137786)
        G-vector shells                 0.03 Mb     (    3408)
     Largest temporary arrays     est. size (Mb)     dimensions
        Auxiliary wavefunctions        16.42 Mb     (    6115,  176)
        Each subspace H/S matrix        0.12 Mb     (      88,   88)
        Each <psi_i|beta_j> matrix      0.10 Mb     (     154,   44)
        Arrays for rho mixing          37.82 Mb     (  309825,    8)

     Check: negative/imaginary core charge=   -0.000002    0.000000

     Initial potential from superposition of free atoms
     Check: negative starting charge=   -0.000718

     starting charge   87.99945, renormalised to   88.00000

     negative rho (up, down):  7.178E-04 0.000E+00
     Starting wfc are   77 randomized atomic wfcs
     Checking if some PAW data can be deallocated... 

     total cpu time spent up to now is       46.9 secs

     per-process dynamical memory:   152.7 Mb

     Self-consistent Calculation

     iteration #  1     ecut=    40.00 Ry     beta=0.40
     Davidson diagonalization with overlap
     ethr =  1.00E-02,  avg # of iterations =  2.0

     negative rho (up, down):  1.145E-03 0.000E+00

     total cpu time spent up to now is      143.2 secs

     total energy              =    -411.99376078 Ry
     Harris-Foulkes estimate   =    -413.99476855 Ry
     estimated scf accuracy    <       4.12772673 Ry

     iteration #  2     ecut=    40.00 Ry     beta=0.40
     Davidson diagonalization with overlap
     ethr =  4.69E-03,  avg # of iterations =  3.0

     negative rho (up, down):  1.379E-03 0.000E+00

     total cpu time spent up to now is      237.2 secs

     total energy              =    -412.54725206 Ry
     Harris-Foulkes estimate   =    -412.71625071 Ry
     estimated scf accuracy    <       0.46591918 Ry

     iteration #  3     ecut=    40.00 Ry     beta=0.40
     Davidson diagonalization with overlap
     ethr =  5.29E-04,  avg # of iterations =  4.0

     negative rho (up, down):  1.663E-03 0.000E+00

     total cpu time spent up to now is      318.2 secs

     total energy              =    -412.55567846 Ry
     Harris-Foulkes estimate   =    -412.60972473 Ry
     estimated scf accuracy    <       0.14669807 Ry

     iteration #  4     ecut=    40.00 Ry     beta=0.40
     Davidson diagonalization with overlap
     ethr =  1.67E-04,  avg # of iterations =  4.0

     negative rho (up, down):  1.913E-03 0.000E+00

     total cpu time spent up to now is      394.0 secs

     total energy              =    -412.56269150 Ry
     Harris-Foulkes estimate   =    -412.57506190 Ry
     estimated scf accuracy    <       0.03421637 Ry

     iteration #  5     ecut=    40.00 Ry     beta=0.40
     Davidson diagonalization with overlap
     ethr =  3.89E-05,  avg # of iterations =  3.0

     negative rho (up, down):  1.954E-03 0.000E+00

     total cpu time spent up to now is      461.9 secs

     total energy              =    -412.56603614 Ry
     Harris-Foulkes estimate   =    -412.56699297 Ry
     estimated scf accuracy    <       0.00249903 Ry

     iteration #  6     ecut=    40.00 Ry     beta=0.40
     Davidson diagonalization with overlap
     ethr =  2.84E-06,  avg # of iterations =  3.0

     negative rho (up, down):  1.946E-03 0.000E+00

     total cpu time spent up to now is      551.5 secs

     total energy              =    -412.56652625 Ry
     Harris-Foulkes estimate   =    -412.56666870 Ry
     estimated scf accuracy    <       0.00039234 Ry

     iteration #  7     ecut=    40.00 Ry     beta=0.40
     Davidson diagonalization with overlap
     ethr =  4.46E-07,  avg # of iterations =  4.0

     negative rho (up, down):  1.937E-03 0.000E+00

     total cpu time spent up to now is      637.0 secs

     total energy              =    -412.56657139 Ry
     Harris-Foulkes estimate   =    -412.56663194 Ry
     estimated scf accuracy    <       0.00015266 Ry

     iteration #  8     ecut=    40.00 Ry     beta=0.40
     Davidson diagonalization with overlap
     ethr =  1.73E-07,  avg # of iterations =  3.0

     negative rho (up, down):  1.935E-03 0.000E+00

     total cpu time spent up to now is      714.3 secs

     total energy              =    -412.56660127 Ry
     Harris-Foulkes estimate   =    -412.56660416 Ry
     estimated scf accuracy    <       0.00001690 Ry

     iteration #  9     ecut=    40.00 Ry     beta=0.40
     Davidson diagonalization with overlap
     ethr =  1.92E-08,  avg # of iterations =  3.0

     negative rho (up, down):  1.931E-03 0.000E+00

     total cpu time spent up to now is      791.0 secs

     total energy              =    -412.56660289 Ry
     Harris-Foulkes estimate   =    -412.56660336 Ry
     estimated scf accuracy    <       0.00000331 Ry

     iteration # 10     ecut=    40.00 Ry     beta=0.40
     Davidson diagonalization with overlap
     ethr =  3.76E-09,  avg # of iterations =  3.0

     negative rho (up, down):  1.931E-03 0.000E+00

     total cpu time spent up to now is      877.5 secs

     total energy              =    -412.56660353 Ry
     Harris-Foulkes estimate   =    -412.56660363 Ry
     estimated scf accuracy    <       0.00000057 Ry

     iteration # 11     ecut=    40.00 Ry     beta=0.40
     Davidson diagonalization with overlap
     ethr =  6.53E-10,  avg # of iterations =  3.0

     negative rho (up, down):  1.932E-03 0.000E+00

     total cpu time spent up to now is      950.8 secs

     End of self-consistent calculation

          k = 0.0000 0.0000 0.0000 ( 48693 PWs)   bands (ev):

   -25.2684 -24.9089 -24.6377 -24.2156 -21.8869 -21.5786 -21.1522 -18.9965
   -17.2187 -16.7790 -14.8766 -14.7714 -13.7291 -13.2456 -12.6434 -12.5875
   -12.1394 -11.8642 -11.2316 -11.1801 -10.6610 -10.4688 -10.4385  -9.8152
    -9.6447  -9.3280  -9.2127  -9.0866  -8.9475  -8.7109  -8.4994  -8.2068
    -7.8060  -7.7505  -7.6558  -7.4935  -6.6705  -5.5056  -5.2178  -5.1201
    -4.8294  -4.5720  -4.3535  -4.0480

          k = 0.0000 0.0000 0.3333 ( 48745 PWs)   bands (ev):

   -25.2684 -24.9089 -24.6377 -24.2156 -21.8869 -21.5786 -21.1522 -18.9965
   -17.2187 -16.7790 -14.8766 -14.7714 -13.7291 -13.2456 -12.6434 -12.5876
   -12.1395 -11.8643 -11.2316 -11.1801 -10.6610 -10.4688 -10.4386  -9.8152
    -9.6447  -9.3280  -9.2127  -9.0866  -8.9475  -8.7110  -8.4995  -8.2068
    -7.8061  -7.7505  -7.6559  -7.4935  -6.6706  -5.5056  -5.2178  -5.1202
    -4.8294  -4.5721  -4.3536  -4.0479

          k = 0.0000 0.3333 0.3333 ( 48716 PWs)   bands (ev):

   -25.2684 -24.9089 -24.6377 -24.2156 -21.8869 -21.5786 -21.1522 -18.9965
   -17.2187 -16.7790 -14.8766 -14.7714 -13.7291 -13.2456 -12.6433 -12.5876
   -12.1394 -11.8643 -11.2317 -11.1800 -10.6609 -10.4687 -10.4381  -9.8160
    -9.6446  -9.3288  -9.2123  -9.0867  -8.9475  -8.7107  -8.4990  -8.2058
    -7.8058  -7.7556  -7.6520  -7.4935  -6.6705  -5.5056  -5.2178  -5.1201
    -4.8296  -4.5698  -4.3558  -4.0480

          k = 0.3333 0.3333 0.3333 ( 48704 PWs)   bands (ev):

   -25.2684 -24.9089 -24.6377 -24.2156 -21.8869 -21.5786 -21.1522 -18.9965
   -17.2187 -16.7790 -14.8766 -14.7714 -13.7291 -13.2456 -12.6433 -12.5876
   -12.1394 -11.8643 -11.2317 -11.1800 -10.6609 -10.4687 -10.4381  -9.8160
    -9.6446  -9.3288  -9.2123  -9.0867  -8.9475  -8.7107  -8.4990  -8.2057
    -7.8058  -7.7556  -7.6520  -7.4935  -6.6705  -5.5055  -5.2178  -5.1201
    -4.8296  -4.5698  -4.3558  -4.0479

          k = 0.3333 0.0000 0.0000 ( 48745 PWs)   bands (ev):

   -25.2684 -24.9089 -24.6377 -24.2156 -21.8869 -21.5786 -21.1522 -18.9965
   -17.2187 -16.7790 -14.8766 -14.7714 -13.7291 -13.2456 -12.6434 -12.5876
   -12.1395 -11.8643 -11.2316 -11.1801 -10.6610 -10.4688 -10.4386  -9.8153
    -9.6447  -9.3280  -9.2127  -9.0866  -8.9475  -8.7110  -8.4995  -8.2068
    -7.8061  -7.7505  -7.6559  -7.4935  -6.6706  -5.5056  -5.2178  -5.1202
    -4.8294  -4.5722  -4.3535  -4.0481

          k = 0.0000 0.3333 0.0000 ( 48745 PWs)   bands (ev):

   -25.2684 -24.9089 -24.6377 -24.2156 -21.8869 -21.5786 -21.1522 -18.9965
   -17.2187 -16.7790 -14.8766 -14.7714 -13.7291 -13.2456 -12.6434 -12.5876
   -12.1395 -11.8643 -11.2317 -11.1800 -10.6609 -10.4687 -10.4381  -9.8160
    -9.6446  -9.3289  -9.2123  -9.0867  -8.9475  -8.7108  -8.4990  -8.2058
    -7.8058  -7.7556  -7.6520  -7.4935  -6.6706  -5.5056  -5.2178  -5.1201
    -4.8296  -4.5699  -4.3558  -4.0482

          k = 0.0000-0.3333 0.3333 ( 48716 PWs)   bands (ev):

   -25.2684 -24.9089 -24.6377 -24.2156 -21.8869 -21.5786 -21.1522 -18.9965
   -17.2187 -16.7790 -14.8766 -14.7714 -13.7291 -13.2456 -12.6433 -12.5876
   -12.1394 -11.8643 -11.2317 -11.1800 -10.6608 -10.4687 -10.4381  -9.8160
    -9.6446  -9.3288  -9.2123  -9.0867  -8.9475  -8.7107  -8.4990  -8.2058
    -7.8058  -7.7556  -7.6519  -7.4935  -6.6705  -5.5055  -5.2178  -5.1201
    -4.8296  -4.5698  -4.3558  -4.0480

          k = 0.3333 0.0000-0.3333 ( 48716 PWs)   bands (ev):

   -25.2684 -24.9089 -24.6377 -24.2156 -21.8869 -21.5786 -21.1522 -18.9965
   -17.2187 -16.7790 -14.8766 -14.7714 -13.7291 -13.2456 -12.6434 -12.5875
   -12.1394 -11.8642 -11.2316 -11.1801 -10.6610 -10.4688 -10.4386  -9.8152
    -9.6447  -9.3279  -9.2127  -9.0866  -8.9475  -8.7110  -8.4994  -8.2068
    -7.8060  -7.7504  -7.6559  -7.4934  -6.6706  -5.5055  -5.2178  -5.1202
    -4.8294  -4.5721  -4.3535  -4.0478

          k =-0.3333 0.0000-0.3333 ( 48716 PWs)   bands (ev):

   -25.2684 -24.9089 -24.6377 -24.2156 -21.8869 -21.5786 -21.1522 -18.9965
   -17.2187 -16.7790 -14.8766 -14.7714 -13.7291 -13.2456 -12.6434 -12.5875
   -12.1395 -11.8643 -11.2316 -11.1801 -10.6610 -10.4688 -10.4386  -9.8152
    -9.6447  -9.3280  -9.2127  -9.0866  -8.9475  -8.7110  -8.4994  -8.2068
    -7.8060  -7.7505  -7.6559  -7.4935  -6.6706  -5.5055  -5.2178  -5.1202
    -4.8294  -4.5721  -4.3535  -4.0477

          k = 0.3333-0.3333 0.0000 ( 48716 PWs)   bands (ev):

   -25.2684 -24.9089 -24.6377 -24.2156 -21.8869 -21.5786 -21.1522 -18.9965
   -17.2187 -16.7790 -14.8766 -14.7714 -13.7291 -13.2456 -12.6433 -12.5876
   -12.1394 -11.8643 -11.2317 -11.1800 -10.6609 -10.4687 -10.4382  -9.8160
    -9.6446  -9.3288  -9.2123  -9.0867  -8.9475  -8.7107  -8.4990  -8.2057
    -7.8058  -7.7556  -7.6519  -7.4935  -6.6706  -5.5056  -5.2178  -5.1201
    -4.8296  -4.5698  -4.3558  -4.0481

          k =-0.3333-0.3333 0.0000 ( 48716 PWs)   bands (ev):

   -25.2684 -24.9089 -24.6377 -24.2156 -21.8869 -21.5786 -21.1522 -18.9965
   -17.2187 -16.7790 -14.8766 -14.7714 -13.7291 -13.2456 -12.6433 -12.5876
   -12.1394 -11.8643 -11.2317 -11.1800 -10.6609 -10.4687 -10.4381  -9.8160
    -9.6446  -9.3288  -9.2123  -9.0866  -8.9475  -8.7107  -8.4990  -8.2057
    -7.8058  -7.7555  -7.6520  -7.4935  -6.6705  -5.5055  -5.2178  -5.1201
    -4.8296  -4.5698  -4.3558  -4.0482

          k =-0.3333-0.3333 0.3333 ( 48704 PWs)   bands (ev):

   -25.2684 -24.9089 -24.6377 -24.2156 -21.8869 -21.5786 -21.1522 -18.9965
   -17.2187 -16.7790 -14.8766 -14.7714 -13.7291 -13.2456 -12.6433 -12.5876
   -12.1394 -11.8643 -11.2317 -11.1800 -10.6608 -10.4687 -10.4381  -9.8160
    -9.6446  -9.3288  -9.2123  -9.0867  -8.9475  -8.7107  -8.4989  -8.2057
    -7.8058  -7.7556  -7.6520  -7.4935  -6.6705  -5.5055  -5.2178  -5.1201
    -4.8296  -4.5698  -4.3558  -4.0480

          k =-0.3333 0.3333-0.3333 ( 48704 PWs)   bands (ev):

   -25.2684 -24.9089 -24.6377 -24.2156 -21.8869 -21.5786 -21.1522 -18.9965
   -17.2187 -16.7790 -14.8766 -14.7714 -13.7291 -13.2456 -12.6433 -12.5876
   -12.1394 -11.8643 -11.2317 -11.1800 -10.6609 -10.4687 -10.4381  -9.8160
    -9.6446  -9.3288  -9.2123  -9.0867  -8.9475  -8.7107  -8.4990  -8.2058
    -7.8058  -7.7556  -7.6519  -7.4935  -6.6706  -5.5055  -5.2178  -5.1201
    -4.8296  -4.5698  -4.3558  -4.0479

          k = 0.3333-0.3333-0.3333 ( 48704 PWs)   bands (ev):

   -25.2684 -24.9089 -24.6377 -24.2156 -21.8869 -21.5786 -21.1522 -18.9965
   -17.2187 -16.7790 -14.8766 -14.7714 -13.7291 -13.2456 -12.6433 -12.5876
   -12.1394 -11.8643 -11.2317 -11.1800 -10.6609 -10.4687 -10.4381  -9.8160
    -9.6446  -9.3288  -9.2123  -9.0867  -8.9475  -8.7107  -8.4990  -8.2057
    -7.8058  -7.7556  -7.6519  -7.4935  -6.6705  -5.5055  -5.2178  -5.1202
    -4.8296  -4.5698  -4.3557  -4.0480

     highest occupied level (ev):    -4.0477

!    total energy              =    -412.56660359 Ry
     Harris-Foulkes estimate   =    -412.56660361 Ry
     estimated scf accuracy    <       0.00000009 Ry

     total all-electron energy =     -1554.191505 Ry

     The total energy is the sum of the following terms:

     one-electron contribution =    -976.40689814 Ry
     hartree contribution      =     505.20288092 Ry
     xc contribution           =     -93.91755829 Ry
     ewald contribution        =     259.87034788 Ry
     one-center paw contrib.   =    -107.31537595 Ry

     convergence has been achieved in  11 iterations

     Writing output data file aiida.save

     init_run     :     45.59s CPU     45.87s WALL (       1 calls)
     electrons    :    880.18s CPU    904.06s WALL (       1 calls)

     Called by init_run:
     wfcinit      :     38.69s CPU     38.88s WALL (       1 calls)
     potinit      :      1.49s CPU      1.51s WALL (       1 calls)

     Called by electrons:
     c_bands      :    722.73s CPU    742.99s WALL (      11 calls)
     sum_band     :    120.70s CPU    123.16s WALL (      11 calls)
     v_of_rho     :      7.58s CPU      7.64s WALL (      12 calls)
     newd         :     26.25s CPU     27.03s WALL (      12 calls)
     mix_rho      :      1.20s CPU      1.23s WALL (      11 calls)

     Called by c_bands:
     init_us_2    :      4.13s CPU      4.20s WALL (     322 calls)
     cegterg      :    713.74s CPU    733.70s WALL (     154 calls)

     Called by *egterg:
     h_psi        :    460.00s CPU    470.38s WALL (     658 calls)
     s_psi        :     91.96s CPU     93.65s WALL (     658 calls)
     g_psi        :      0.81s CPU      0.85s WALL (     490 calls)
     cdiaghg      :     11.36s CPU     11.58s WALL (     644 calls)

     Called by h_psi:
     add_vuspsi   :     92.40s CPU     94.14s WALL (     658 calls)

     General routines
     calbec       :    130.16s CPU    132.92s WALL (     812 calls)
     fft          :      7.75s CPU      7.90s WALL (     188 calls)
     ffts         :      0.20s CPU      0.23s WALL (      23 calls)
     fftw         :    266.39s CPU    273.03s WALL (   44284 calls)
     interpolate  :      1.10s CPU      1.21s WALL (      23 calls)
     davcio       :      0.01s CPU      0.10s WALL (      14 calls)

     Parallel routines
     fft_scatter  :    123.60s CPU    127.23s WALL (   44495 calls)

     PAW routines
     PAW_pot      :      4.39s CPU      4.55s WALL (      12 calls)

     PWSCF        : 15m27.14s CPU    15m51.44s WALL


   This run was terminated on:  11:31:25   5Jan2023            

=------------------------------------------------------------------------------=
   JOB DONE.
=------------------------------------------------------------------------------=
