
     Program PWSCF v.5.1 starts on  5Jan2023 at 16:31:29 

     This program is part of the open-source Quantum ESPRESSO suite
     for quantum simulation of materials; please cite
         "P. Giannozzi et al., J. Phys.:Condens. Matter 21 395502 (2009);
          URL http://www.quantum-espresso.org", 
     in publications or presentations arising from this work. More details at
     http://www.quantum-espresso.org/quote

     Parallel version (MPI), running on     8 processors
     R & G space division:  proc/nbgrp/npool/nimage =       8
     Waiting for input...
     Reading input from standard input

     Current dimensions of program PWSCF are:
     Max number of different atomic species (ntypx) = 10
     Max number of k-points (npk) =  40000
     Max angular momentum in pseudopotentials (lmaxx) =  3
               file C.pbesol-n-kjpaw_psl.1.0.0.UPF: wavefunction(s)  2S 2P renormalized
               file H.pbesol-kjpaw_psl.0.1.UPF: wavefunction(s)  1S renormalized
               file N.pbesol-n-kjpaw_psl.0.1.UPF: wavefunction(s)  2P renormalized
               file O.pbesol-n-kjpaw_psl.0.1.UPF: wavefunction(s)  2P renormalized

     Subspace diagonalization in iterative solution of the eigenvalue problem:
     scalapack distributed-memory algorithm (size of sub-group:  2*  2 procs)


     Parallelization info
     --------------------
     sticks:   dense  smooth     PW     G-vecs:    dense   smooth      PW
     Min        4437    2217    572               628343   222193   29080
     Max        4438    2218    573               628346   222212   29083
     Sum       35501   17737   4577              5026761  1777623  232653



     bravais-lattice index     =            0
     lattice parameter (alat)  =      22.5090  a.u.
     unit-cell volume          =   11404.2970 (a.u.)^3
     number of atoms/cell      =           32
     number of atomic types    =            4
     number of electrons       =        88.00
     number of Kohn-Sham states=           44
     kinetic-energy cutoff     =     110.0000  Ry
     charge density cutoff     =     880.0000  Ry
     convergence threshold     =      1.0E-07
     mixing beta               =       0.4000
     number of iterations used =            8  plain     mixing
     Exchange-correlation      =  SLA  PW   PSX  PSC ( 1  4 10  8 0)

     celldm(1)=  22.508999  celldm(2)=   0.000000  celldm(3)=   0.000000
     celldm(4)=   0.000000  celldm(5)=   0.000000  celldm(6)=   0.000000

     crystal axes: (cart. coord. in units of alat)
               a(1) = (   1.000000   0.000000   0.000000 )  
               a(2) = (   0.000000   1.000000   0.000000 )  
               a(3) = (   0.000000   0.000000   1.000000 )  

     reciprocal axes: (cart. coord. in units 2 pi/alat)
               b(1) = (  1.000000  0.000000  0.000000 )  
               b(2) = (  0.000000  1.000000  0.000000 )  
               b(3) = (  0.000000  0.000000  1.000000 )  


     PseudoPot. # 1 for  C read from file:
     ./pseudo/C.pbesol-n-kjpaw_psl.1.0.0.UPF
     MD5 check sum: 5f3a56537b2bcef3348431d8311bb923
     Pseudo is Projector augmented-wave + core cor, Zval =  4.0
     Generated using "atomic" code by A. Dal Corso  v.6.0 svn rev. 13079
     Shape of augmentation charge: PSQ
     Using radial grid of 1073 points,  4 beta functions with: 
                l(1) =   0
                l(2) =   0
                l(3) =   1
                l(4) =   1
     Q(r) pseudized with 0 coefficients 


     PseudoPot. # 2 for  H read from file:
     ./pseudo/H.pbesol-kjpaw_psl.0.1.UPF
     MD5 check sum: 27a6b98f1514c59d399e798f1258b8b7
     Pseudo is Projector augmented-wave, Zval =  1.0
     Generated using "atomic" code by A. Dal Corso  v.5.0.2 svn rev. 9415
     Shape of augmentation charge: PSQ
     Using radial grid of  929 points,  2 beta functions with: 
                l(1) =   0
                l(2) =   0
     Q(r) pseudized with 0 coefficients 


     PseudoPot. # 3 for  N read from file:
     ./pseudo/N.pbesol-n-kjpaw_psl.0.1.UPF
     MD5 check sum: 15bd223d5d75e9eda893d0f4e6bdad1b
     Pseudo is Projector augmented-wave + core cor, Zval =  5.0
     Generated using "atomic" code by A. Dal Corso  v.6.3
     Shape of augmentation charge: PSQ
     Using radial grid of 1085 points,  4 beta functions with: 
                l(1) =   0
                l(2) =   0
                l(3) =   1
                l(4) =   1
     Q(r) pseudized with 0 coefficients 


     PseudoPot. # 4 for  O read from file:
     ./pseudo/O.pbesol-n-kjpaw_psl.0.1.UPF
     MD5 check sum: 81d73d1479e654e5638b0319f0d6c2c7
     Pseudo is Projector augmented-wave + core cor, Zval =  6.0
     Generated using "atomic" code by A. Dal Corso  v.6.0 svn rev. 13079
     Shape of augmentation charge: BESSEL
     Using radial grid of 1095 points,  4 beta functions with: 
                l(1) =   0
                l(2) =   0
                l(3) =   1
                l(4) =   1
     Q(r) pseudized with 0 coefficients 


     atomic species   valence    mass     pseudopotential
        C              4.00    12.01070      C( 1.00)
        H              1.00     1.00794      H( 1.00)
        N              5.00    14.00670      N( 1.00)
        O              6.00    15.99940      O( 1.00)

     No symmetry found



   Cartesian axes

     site n.     atom                  positions (alat units)
         1           H   tau(   1) = (   0.6590510   0.8635640   0.7850250  )
         2           H   tau(   2) = (   0.6030540   0.9000000   0.6637950  )
         3           H   tau(   3) = (   0.7401510   0.7250390   0.7055200  )
         4           H   tau(   4) = (   0.7513170   0.7375490   0.5035260  )
         5           H   tau(   5) = (   0.5660300   0.6326900   0.7829260  )
         6           H   tau(   6) = (   0.6292480   0.5594820   0.6669850  )
         7           H   tau(   7) = (   0.4522720   0.5637630   0.6245880  )
         8           H   tau(   8) = (   0.6651800   0.2951100   0.4626400  )
         9           H   tau(   9) = (   0.4817400   0.2682440   0.4519780  )
        10           H   tau(  10) = (   0.5842480   0.1604470   0.2350400  )
        11           H   tau(  11) = (   0.4064330   0.3194560   0.2416730  )
        12           H   tau(  12) = (   0.5143140   0.4247350   0.2645920  )
        13           H   tau(  13) = (   0.4003880   0.4353970   0.4581070  )
        14           H   tau(  14) = (   0.2896530   0.3946800   0.3648340  )
        15           H   tau(  15) = (   0.6380630   0.4060130   0.3843110  )
        16           H   tau(  16) = (   0.2853710   0.6493130   0.2155630  )
        17           H   tau(  17) = (   0.2486830   0.5070940   0.2149750  )
        18           C   tau(  18) = (   0.6572040   0.7383040   0.6691680  )
        19           C   tau(  19) = (   0.6704690   0.7541710   0.5429850  )
        20           C   tau(  20) = (   0.5838280   0.6344530   0.6931790  )
        21           C   tau(  21) = (   0.5211980   0.2811730   0.3703750  )
        22           C   tau(  22) = (   0.5245570   0.1722850   0.3033790  )
        23           C   tau(  23) = (   0.4551260   0.3666390   0.3031270  )
        24           C   tau(  24) = (   0.3721800   0.4338020   0.3710460  )
        25           C   tau(  25) = (   0.3648760   0.5525130   0.3290690  )
        26           N   tau(  26) = (   0.6091830   0.8381260   0.7213870  )
        27           N   tau(  27) = (   0.6368040   0.3213040   0.3871650  )
        28           N   tau(  28) = (   0.2942700   0.5710670   0.2469620  )
        29           O   tau(  29) = (   0.5907130   0.7856540   0.4848880  )
        30           O   tau(  30) = (   0.4801450   0.6386510   0.6354180  )
        31           O   tau(  31) = (   0.4589880   0.1000000   0.3287330  )
        32           O   tau(  32) = (   0.4210410   0.6265610   0.3706270  )

     number of k points=    14
                       cart. coord. in units 2pi/alat
        k(    1) = (   0.0000000   0.0000000   0.0000000), wk =   0.0740741
        k(    2) = (   0.0000000   0.0000000   0.3333333), wk =   0.1481481
        k(    3) = (   0.0000000   0.3333333   0.3333333), wk =   0.1481481
        k(    4) = (   0.3333333   0.3333333   0.3333333), wk =   0.1481481
        k(    5) = (   0.3333333   0.0000000   0.0000000), wk =   0.1481481
        k(    6) = (   0.0000000   0.3333333   0.0000000), wk =   0.1481481
        k(    7) = (   0.0000000  -0.3333333   0.3333333), wk =   0.1481481
        k(    8) = (   0.3333333   0.0000000  -0.3333333), wk =   0.1481481
        k(    9) = (  -0.3333333   0.0000000  -0.3333333), wk =   0.1481481
        k(   10) = (   0.3333333  -0.3333333   0.0000000), wk =   0.1481481
        k(   11) = (  -0.3333333  -0.3333333   0.0000000), wk =   0.1481481
        k(   12) = (  -0.3333333  -0.3333333   0.3333333), wk =   0.1481481
        k(   13) = (  -0.3333333   0.3333333  -0.3333333), wk =   0.1481481
        k(   14) = (   0.3333333  -0.3333333  -0.3333333), wk =   0.1481481

     Dense  grid:  5026761 G-vectors     FFT dimensions: ( 216, 216, 216)

     Smooth grid:  1777623 G-vectors     FFT dimensions: ( 160, 160, 160)

     Largest allocated arrays     est. size (Mb)     dimensions
        Kohn-Sham Wavefunctions        18.67 Mb     (   27807,   44)
        NL pseudopotentials            65.34 Mb     (   27807,  154)
        Each V/rho on FFT grid         19.22 Mb     ( 1259712)
        Each G-vector array             4.79 Mb     (  628345)
        G-vector shells                 0.07 Mb     (    9396)
     Largest temporary arrays     est. size (Mb)     dimensions
        Auxiliary wavefunctions        74.68 Mb     (   27807,  176)
        Each subspace H/S matrix        0.12 Mb     (      88,   88)
        Each <psi_i|beta_j> matrix      0.10 Mb     (     154,   44)
        Arrays for rho mixing         153.77 Mb     ( 1259712,    8)

     Initial potential from superposition of free atoms

     starting charge   87.99945, renormalised to   88.00000

     negative rho (up, down):  7.329E-05 0.000E+00
     Starting wfc are   77 randomized atomic wfcs
     Checking if some PAW data can be deallocated... 

     total cpu time spent up to now is      287.8 secs

     per-process dynamical memory:   583.2 Mb

     Self-consistent Calculation

     iteration #  1     ecut=   110.00 Ry     beta=0.40
     Davidson diagonalization with overlap
     ethr =  1.00E-02,  avg # of iterations =  2.0

     negative rho (up, down):  9.678E-05 0.000E+00

     total cpu time spent up to now is      871.2 secs

     total energy              =    -412.01586960 Ry
     Harris-Foulkes estimate   =    -414.00929719 Ry
     estimated scf accuracy    <       4.10249543 Ry

     iteration #  2     ecut=   110.00 Ry     beta=0.40
     Davidson diagonalization with overlap
     ethr =  4.66E-03,  avg # of iterations =  3.0

     negative rho (up, down):  1.333E-04 0.000E+00

     total cpu time spent up to now is     1472.6 secs

     total energy              =    -412.58104756 Ry
     Harris-Foulkes estimate   =    -412.74428959 Ry
     estimated scf accuracy    <       0.45222476 Ry

     iteration #  3     ecut=   110.00 Ry     beta=0.40
     Davidson diagonalization with overlap
     ethr =  5.14E-04,  avg # of iterations =  4.0

     negative rho (up, down):  1.902E-04 0.000E+00

     total cpu time spent up to now is     1973.3 secs

     total energy              =    -412.59269862 Ry
     Harris-Foulkes estimate   =    -412.64569213 Ry
     estimated scf accuracy    <       0.14358357 Ry

     iteration #  4     ecut=   110.00 Ry     beta=0.40
     Davidson diagonalization with overlap
     ethr =  1.63E-04,  avg # of iterations =  4.0

     negative rho (up, down):  2.495E-04 0.000E+00

     total cpu time spent up to now is     2438.3 secs

     total energy              =    -412.59831840 Ry
     Harris-Foulkes estimate   =    -412.61008884 Ry
     estimated scf accuracy    <       0.03162727 Ry

     iteration #  5     ecut=   110.00 Ry     beta=0.40
     Davidson diagonalization with overlap
     ethr =  3.59E-05,  avg # of iterations =  4.0

     negative rho (up, down):  2.534E-04 0.000E+00

     total cpu time spent up to now is     2984.7 secs

     total energy              =    -412.60202435 Ry
     Harris-Foulkes estimate   =    -412.60349612 Ry
     estimated scf accuracy    <       0.00312756 Ry

     iteration #  6     ecut=   110.00 Ry     beta=0.40
     Davidson diagonalization with overlap
     ethr =  3.55E-06,  avg # of iterations =  4.0

     negative rho (up, down):  2.578E-04 0.000E+00

     total cpu time spent up to now is     3564.2 secs

     total energy              =    -412.60269130 Ry
     Harris-Foulkes estimate   =    -412.60292655 Ry
     estimated scf accuracy    <       0.00067960 Ry

     iteration #  7     ecut=   110.00 Ry     beta=0.40
     Davidson diagonalization with overlap
     ethr =  7.72E-07,  avg # of iterations =  4.0

     negative rho (up, down):  2.559E-04 0.000E+00

     total cpu time spent up to now is     4105.2 secs

     total energy              =    -412.60279818 Ry
     Harris-Foulkes estimate   =    -412.60284913 Ry
     estimated scf accuracy    <       0.00014516 Ry

     iteration #  8     ecut=   110.00 Ry     beta=0.40
     Davidson diagonalization with overlap
     ethr =  1.65E-07,  avg # of iterations =  3.9

     negative rho (up, down):  2.539E-04 0.000E+00

     total cpu time spent up to now is     4647.2 secs

     total energy              =    -412.60282299 Ry
     Harris-Foulkes estimate   =    -412.60282474 Ry
     estimated scf accuracy    <       0.00001362 Ry

     iteration #  9     ecut=   110.00 Ry     beta=0.40
     Davidson diagonalization with overlap
     ethr =  1.55E-08,  avg # of iterations =  3.0

     negative rho (up, down):  2.532E-04 0.000E+00

     total cpu time spent up to now is     5246.7 secs

     total energy              =    -412.60282579 Ry
     Harris-Foulkes estimate   =    -412.60282605 Ry
     estimated scf accuracy    <       0.00000257 Ry

     iteration # 10     ecut=   110.00 Ry     beta=0.40
     Davidson diagonalization with overlap
     ethr =  2.92E-09,  avg # of iterations =  3.0

     negative rho (up, down):  2.525E-04 0.000E+00

     total cpu time spent up to now is     5758.0 secs

     total energy              =    -412.60282624 Ry
     Harris-Foulkes estimate   =    -412.60282614 Ry
     estimated scf accuracy    <       0.00000036 Ry

     iteration # 11     ecut=   110.00 Ry     beta=0.40
     Davidson diagonalization with overlap
     ethr =  4.06E-10,  avg # of iterations =  2.7

     negative rho (up, down):  2.525E-04 0.000E+00

     total cpu time spent up to now is     6320.5 secs

     End of self-consistent calculation

          k = 0.0000 0.0000 0.0000 (222055 PWs)   bands (ev):

   -25.2592 -24.9022 -24.6297 -24.2069 -21.8837 -21.5775 -21.1504 -18.9966
   -17.2184 -16.7789 -14.8762 -14.7715 -13.7296 -13.2461 -12.6434 -12.5891
   -12.1402 -11.8656 -11.2325 -11.1815 -10.6620 -10.4699 -10.4394  -9.8160
    -9.6453  -9.3289  -9.2130  -9.0880  -8.9485  -8.7111  -8.5002  -8.2079
    -7.8074  -7.7512  -7.6562  -7.4953  -6.6722  -5.5063  -5.2192  -5.1216
    -4.8307  -4.5735  -4.3550  -4.0496

          k = 0.0000 0.0000 0.3333 (222151 PWs)   bands (ev):

   -25.2592 -24.9022 -24.6297 -24.2069 -21.8837 -21.5775 -21.1504 -18.9966
   -17.2184 -16.7789 -14.8762 -14.7715 -13.7296 -13.2461 -12.6434 -12.5891
   -12.1402 -11.8656 -11.2325 -11.1815 -10.6620 -10.4699 -10.4394  -9.8160
    -9.6453  -9.3289  -9.2130  -9.0880  -8.9485  -8.7111  -8.5002  -8.2079
    -7.8075  -7.7512  -7.6562  -7.4953  -6.6722  -5.5063  -5.2192  -5.1216
    -4.8308  -4.5735  -4.3551  -4.0495

          k = 0.0000 0.3333 0.3333 (222181 PWs)   bands (ev):

   -25.2592 -24.9022 -24.6297 -24.2069 -21.8837 -21.5775 -21.1504 -18.9966
   -17.2184 -16.7789 -14.8761 -14.7715 -13.7296 -13.2461 -12.6434 -12.5892
   -12.1402 -11.8657 -11.2326 -11.1813 -10.6618 -10.4698 -10.4390  -9.8167
    -9.6452  -9.3297  -9.2126  -9.0880  -8.9485  -8.7109  -8.4998  -8.2068
    -7.8072  -7.7564  -7.6523  -7.4954  -6.6722  -5.5063  -5.2192  -5.1215
    -4.8309  -4.5712  -4.3573  -4.0496

          k = 0.3333 0.3333 0.3333 (222242 PWs)   bands (ev):

   -25.2592 -24.9022 -24.6297 -24.2069 -21.8837 -21.5775 -21.1504 -18.9966
   -17.2184 -16.7789 -14.8761 -14.7715 -13.7296 -13.2461 -12.6434 -12.5892
   -12.1402 -11.8657 -11.2326 -11.1813 -10.6618 -10.4698 -10.4390  -9.8168
    -9.6452  -9.3297  -9.2126  -9.0880  -8.9485  -8.7109  -8.4998  -8.2068
    -7.8072  -7.7564  -7.6523  -7.4953  -6.6722  -5.5063  -5.2192  -5.1215
    -4.8309  -4.5712  -4.3573  -4.0496

          k = 0.3333 0.0000 0.0000 (222151 PWs)   bands (ev):

   -25.2592 -24.9022 -24.6297 -24.2069 -21.8837 -21.5775 -21.1504 -18.9966
   -17.2184 -16.7789 -14.8762 -14.7715 -13.7296 -13.2461 -12.6434 -12.5891
   -12.1402 -11.8656 -11.2325 -11.1815 -10.6620 -10.4699 -10.4394  -9.8160
    -9.6453  -9.3289  -9.2130  -9.0880  -8.9485  -8.7111  -8.5002  -8.2079
    -7.8074  -7.7512  -7.6562  -7.4953  -6.6722  -5.5063  -5.2192  -5.1216
    -4.8307  -4.5734  -4.3550  -4.0496

          k = 0.0000 0.3333 0.0000 (222151 PWs)   bands (ev):

   -25.2592 -24.9022 -24.6297 -24.2069 -21.8837 -21.5775 -21.1504 -18.9966
   -17.2184 -16.7789 -14.8761 -14.7715 -13.7296 -13.2461 -12.6434 -12.5892
   -12.1402 -11.8657 -11.2326 -11.1813 -10.6618 -10.4698 -10.4390  -9.8168
    -9.6452  -9.3297  -9.2126  -9.0880  -8.9485  -8.7109  -8.4998  -8.2068
    -7.8072  -7.7564  -7.6523  -7.4954  -6.6722  -5.5063  -5.2192  -5.1215
    -4.8309  -4.5712  -4.3573  -4.0497

          k = 0.0000-0.3333 0.3333 (222181 PWs)   bands (ev):

   -25.2592 -24.9022 -24.6297 -24.2069 -21.8837 -21.5775 -21.1504 -18.9966
   -17.2184 -16.7789 -14.8761 -14.7715 -13.7296 -13.2461 -12.6434 -12.5892
   -12.1402 -11.8657 -11.2326 -11.1813 -10.6618 -10.4698 -10.4390  -9.8168
    -9.6452  -9.3297  -9.2126  -9.0880  -8.9485  -8.7109  -8.4998  -8.2068
    -7.8072  -7.7564  -7.6523  -7.4954  -6.6722  -5.5063  -5.2192  -5.1215
    -4.8309  -4.5712  -4.3573  -4.0496

          k = 0.3333 0.0000-0.3333 (222181 PWs)   bands (ev):

   -25.2592 -24.9022 -24.6297 -24.2069 -21.8837 -21.5775 -21.1504 -18.9966
   -17.2184 -16.7789 -14.8762 -14.7715 -13.7296 -13.2461 -12.6434 -12.5891
   -12.1402 -11.8656 -11.2325 -11.1815 -10.6620 -10.4699 -10.4394  -9.8160
    -9.6453  -9.3289  -9.2130  -9.0880  -8.9485  -8.7111  -8.5002  -8.2079
    -7.8074  -7.7512  -7.6562  -7.4953  -6.6722  -5.5063  -5.2192  -5.1216
    -4.8308  -4.5735  -4.3550  -4.0495

          k =-0.3333 0.0000-0.3333 (222181 PWs)   bands (ev):

   -25.2592 -24.9022 -24.6297 -24.2069 -21.8837 -21.5775 -21.1504 -18.9966
   -17.2184 -16.7789 -14.8762 -14.7715 -13.7296 -13.2461 -12.6434 -12.5891
   -12.1402 -11.8656 -11.2325 -11.1815 -10.6620 -10.4699 -10.4394  -9.8160
    -9.6453  -9.3289  -9.2130  -9.0880  -8.9485  -8.7111  -8.5002  -8.2079
    -7.8074  -7.7512  -7.6562  -7.4953  -6.6722  -5.5063  -5.2192  -5.1216
    -4.8308  -4.5735  -4.3550  -4.0495

          k = 0.3333-0.3333 0.0000 (222181 PWs)   bands (ev):

   -25.2592 -24.9022 -24.6297 -24.2069 -21.8837 -21.5775 -21.1504 -18.9966
   -17.2184 -16.7789 -14.8761 -14.7715 -13.7296 -13.2461 -12.6434 -12.5892
   -12.1402 -11.8657 -11.2326 -11.1813 -10.6618 -10.4698 -10.4390  -9.8168
    -9.6452  -9.3297  -9.2126  -9.0880  -8.9485  -8.7109  -8.4998  -8.2068
    -7.8072  -7.7564  -7.6523  -7.4953  -6.6722  -5.5063  -5.2192  -5.1215
    -4.8309  -4.5712  -4.3573  -4.0498

          k =-0.3333-0.3333 0.0000 (222181 PWs)   bands (ev):

   -25.2592 -24.9022 -24.6297 -24.2069 -21.8837 -21.5775 -21.1504 -18.9966
   -17.2184 -16.7789 -14.8761 -14.7715 -13.7296 -13.2461 -12.6434 -12.5892
   -12.1402 -11.8657 -11.2326 -11.1813 -10.6618 -10.4698 -10.4390  -9.8168
    -9.6452  -9.3297  -9.2126  -9.0880  -8.9485  -8.7109  -8.4998  -8.2068
    -7.8072  -7.7564  -7.6523  -7.4953  -6.6722  -5.5063  -5.2192  -5.1215
    -4.8309  -4.5712  -4.3573  -4.0498

          k =-0.3333-0.3333 0.3333 (222242 PWs)   bands (ev):

   -25.2592 -24.9022 -24.6297 -24.2069 -21.8837 -21.5775 -21.1504 -18.9966
   -17.2184 -16.7789 -14.8761 -14.7715 -13.7296 -13.2461 -12.6434 -12.5892
   -12.1402 -11.8657 -11.2326 -11.1813 -10.6618 -10.4698 -10.4390  -9.8168
    -9.6452  -9.3297  -9.2126  -9.0880  -8.9485  -8.7109  -8.4998  -8.2068
    -7.8072  -7.7564  -7.6523  -7.4953  -6.6722  -5.5063  -5.2192  -5.1215
    -4.8309  -4.5712  -4.3573  -4.0496

          k =-0.3333 0.3333-0.3333 (222242 PWs)   bands (ev):

   -25.2592 -24.9022 -24.6297 -24.2069 -21.8837 -21.5775 -21.1504 -18.9966
   -17.2184 -16.7789 -14.8761 -14.7715 -13.7296 -13.2461 -12.6434 -12.5892
   -12.1402 -11.8657 -11.2326 -11.1813 -10.6618 -10.4698 -10.4390  -9.8168
    -9.6452  -9.3297  -9.2126  -9.0880  -8.9485  -8.7109  -8.4998  -8.2068
    -7.8072  -7.7564  -7.6523  -7.4953  -6.6722  -5.5063  -5.2192  -5.1215
    -4.8309  -4.5712  -4.3573  -4.0496

          k = 0.3333-0.3333-0.3333 (222242 PWs)   bands (ev):

   -25.2592 -24.9022 -24.6297 -24.2069 -21.8837 -21.5775 -21.1504 -18.9966
   -17.2184 -16.7789 -14.8761 -14.7715 -13.7296 -13.2461 -12.6434 -12.5892
   -12.1402 -11.8657 -11.2326 -11.1813 -10.6618 -10.4698 -10.4390  -9.8168
    -9.6452  -9.3297  -9.2126  -9.0880  -8.9485  -8.7109  -8.4998  -8.2068
    -7.8072  -7.7564  -7.6523  -7.4953  -6.6722  -5.5063  -5.2192  -5.1215
    -4.8309  -4.5712  -4.3573  -4.0496

     highest occupied level (ev):    -4.0495

!    total energy              =    -412.60282630 Ry
     Harris-Foulkes estimate   =    -412.60282630 Ry
     estimated scf accuracy    <       0.00000005 Ry

     total all-electron energy =     -1554.227728 Ry

     The total energy is the sum of the following terms:

     one-electron contribution =    -976.46792345 Ry
     hartree contribution      =     505.23411373 Ry
     xc contribution           =     -93.92776422 Ry
     ewald contribution        =     259.87034788 Ry
     one-center paw contrib.   =    -107.31160025 Ry

     convergence has been achieved in  11 iterations

     Writing output data file aiida.save

     init_run     :    258.64s CPU    286.24s WALL (       1 calls)
     electrons    :   5245.11s CPU   6034.23s WALL (       1 calls)

     Called by init_run:
     wfcinit      :    228.50s CPU    250.08s WALL (       1 calls)
     potinit      :      5.66s CPU      6.27s WALL (       1 calls)

     Called by electrons:
     c_bands      :   4399.71s CPU   5077.08s WALL (      11 calls)
     sum_band     :    685.42s CPU    769.62s WALL (      11 calls)
     v_of_rho     :     34.69s CPU     42.57s WALL (      12 calls)
     newd         :    121.18s CPU    139.43s WALL (      12 calls)
     mix_rho      :      6.76s CPU      9.00s WALL (      11 calls)

     Called by c_bands:
     init_us_2    :     21.14s CPU     24.63s WALL (     322 calls)
     cegterg      :   4339.40s CPU   5006.49s WALL (     154 calls)

     Called by *egterg:
     h_psi        :   2974.48s CPU   3420.36s WALL (     694 calls)
     s_psi        :    427.43s CPU    486.55s WALL (     694 calls)
     g_psi        :      3.92s CPU      4.49s WALL (     526 calls)
     cdiaghg      :     36.46s CPU     43.94s WALL (     680 calls)

     Called by h_psi:
     add_vuspsi   :    438.70s CPU    508.18s WALL (     694 calls)

     General routines
     calbec       :    686.53s CPU    777.47s WALL (     848 calls)
     fft          :     50.94s CPU     60.84s WALL (     188 calls)
     ffts         :      1.93s CPU      2.33s WALL (      23 calls)
     fftw         :   2132.76s CPU   2452.64s WALL (   45162 calls)
     interpolate  :      6.88s CPU      8.18s WALL (      23 calls)
     davcio       :      0.02s CPU      0.37s WALL (      14 calls)

     Parallel routines
     fft_scatter  :   1302.18s CPU   1490.31s WALL (   45373 calls)

     PAW routines
     PAW_pot      :      4.15s CPU      4.90s WALL (      12 calls)

     PWSCF        :     1h31m CPU        1h45m WALL


   This run was terminated on:  18:16:55   5Jan2023            

=------------------------------------------------------------------------------=
   JOB DONE.
=------------------------------------------------------------------------------=
