
     Program PWSCF v.5.1 starts on  7Jan2023 at  1:13:15 

     This program is part of the open-source Quantum ESPRESSO suite
     for quantum simulation of materials; please cite
         "P. Giannozzi et al., J. Phys.:Condens. Matter 21 395502 (2009);
          URL http://www.quantum-espresso.org", 
     in publications or presentations arising from this work. More details at
     http://www.quantum-espresso.org/quote

     Parallel version (MPI), running on    12 processors
     R & G space division:  proc/nbgrp/npool/nimage =      12
     Waiting for input...
     Reading input from standard input

     Current dimensions of program PWSCF are:
     Max number of different atomic species (ntypx) = 10
     Max number of k-points (npk) =  40000
     Max angular momentum in pseudopotentials (lmaxx) =  3
               file C.pbesol-n-kjpaw_psl.1.0.0.UPF: wavefunction(s)  2S 2P renormalized
               file H.pbesol-kjpaw_psl.0.1.UPF: wavefunction(s)  1S renormalized
               file N.pbesol-n-kjpaw_psl.0.1.UPF: wavefunction(s)  2P renormalized
               file O.pbesol-n-kjpaw_psl.0.1.UPF: wavefunction(s)  2P renormalized

     Subspace diagonalization in iterative solution of the eigenvalue problem:
     scalapack distributed-memory algorithm (size of sub-group:  2*  2 procs)


     Parallelization info
     --------------------
     sticks:   dense  smooth     PW     G-vecs:    dense   smooth      PW
     Min        2417    1207    317               310023   109597   14791
     Max        2418    1208    318               310028   109633   14794
     Sum       29005   14485   3809              3720285  1315387  177509



     bravais-lattice index     =            0
     lattice parameter (alat)  =      22.5090  a.u.
     unit-cell volume          =   11404.2970 (a.u.)^3
     number of atoms/cell      =           32
     number of atomic types    =            4
     number of electrons       =        88.00
     number of Kohn-Sham states=           44
     kinetic-energy cutoff     =      90.0000  Ry
     charge density cutoff     =     720.0000  Ry
     convergence threshold     =      1.0E-07
     mixing beta               =       0.4000
     number of iterations used =            8  plain     mixing
     Exchange-correlation      =  SLA  PW   PSX  PSC ( 1  4 10  8 0)

     celldm(1)=  22.508999  celldm(2)=   0.000000  celldm(3)=   0.000000
     celldm(4)=   0.000000  celldm(5)=   0.000000  celldm(6)=   0.000000

     crystal axes: (cart. coord. in units of alat)
               a(1) = (   1.000000   0.000000   0.000000 )  
               a(2) = (   0.000000   1.000000   0.000000 )  
               a(3) = (   0.000000   0.000000   1.000000 )  

     reciprocal axes: (cart. coord. in units 2 pi/alat)
               b(1) = (  1.000000  0.000000  0.000000 )  
               b(2) = (  0.000000  1.000000  0.000000 )  
               b(3) = (  0.000000  0.000000  1.000000 )  


     PseudoPot. # 1 for  C read from file:
     ./pseudo/C.pbesol-n-kjpaw_psl.1.0.0.UPF
     MD5 check sum: 5f3a56537b2bcef3348431d8311bb923
     Pseudo is Projector augmented-wave + core cor, Zval =  4.0
     Generated using "atomic" code by A. Dal Corso  v.6.0 svn rev. 13079
     Shape of augmentation charge: PSQ
     Using radial grid of 1073 points,  4 beta functions with: 
                l(1) =   0
                l(2) =   0
                l(3) =   1
                l(4) =   1
     Q(r) pseudized with 0 coefficients 


     PseudoPot. # 2 for  H read from file:
     ./pseudo/H.pbesol-kjpaw_psl.0.1.UPF
     MD5 check sum: 27a6b98f1514c59d399e798f1258b8b7
     Pseudo is Projector augmented-wave, Zval =  1.0
     Generated using "atomic" code by A. Dal Corso  v.5.0.2 svn rev. 9415
     Shape of augmentation charge: PSQ
     Using radial grid of  929 points,  2 beta functions with: 
                l(1) =   0
                l(2) =   0
     Q(r) pseudized with 0 coefficients 


     PseudoPot. # 3 for  N read from file:
     ./pseudo/N.pbesol-n-kjpaw_psl.0.1.UPF
     MD5 check sum: 15bd223d5d75e9eda893d0f4e6bdad1b
     Pseudo is Projector augmented-wave + core cor, Zval =  5.0
     Generated using "atomic" code by A. Dal Corso  v.6.3
     Shape of augmentation charge: PSQ
     Using radial grid of 1085 points,  4 beta functions with: 
                l(1) =   0
                l(2) =   0
                l(3) =   1
                l(4) =   1
     Q(r) pseudized with 0 coefficients 


     PseudoPot. # 4 for  O read from file:
     ./pseudo/O.pbesol-n-kjpaw_psl.0.1.UPF
     MD5 check sum: 81d73d1479e654e5638b0319f0d6c2c7
     Pseudo is Projector augmented-wave + core cor, Zval =  6.0
     Generated using "atomic" code by A. Dal Corso  v.6.0 svn rev. 13079
     Shape of augmentation charge: BESSEL
     Using radial grid of 1095 points,  4 beta functions with: 
                l(1) =   0
                l(2) =   0
                l(3) =   1
                l(4) =   1
     Q(r) pseudized with 0 coefficients 


     atomic species   valence    mass     pseudopotential
        C              4.00    12.01070      C( 1.00)
        H              1.00     1.00794      H( 1.00)
        N              5.00    14.00670      N( 1.00)
        O              6.00    15.99940      O( 1.00)

     No symmetry found



   Cartesian axes

     site n.     atom                  positions (alat units)
         1           H   tau(   1) = (   0.6590510   0.8635640   0.7850250  )
         2           H   tau(   2) = (   0.6030540   0.9000000   0.6637950  )
         3           H   tau(   3) = (   0.7401510   0.7250390   0.7055200  )
         4           H   tau(   4) = (   0.7513170   0.7375490   0.5035260  )
         5           H   tau(   5) = (   0.5660300   0.6326900   0.7829260  )
         6           H   tau(   6) = (   0.6292480   0.5594820   0.6669850  )
         7           H   tau(   7) = (   0.4522720   0.5637630   0.6245880  )
         8           H   tau(   8) = (   0.6651800   0.2951100   0.4626400  )
         9           H   tau(   9) = (   0.4817400   0.2682440   0.4519780  )
        10           H   tau(  10) = (   0.5842480   0.1604470   0.2350400  )
        11           H   tau(  11) = (   0.4064330   0.3194560   0.2416730  )
        12           H   tau(  12) = (   0.5143140   0.4247350   0.2645920  )
        13           H   tau(  13) = (   0.4003880   0.4353970   0.4581070  )
        14           H   tau(  14) = (   0.2896530   0.3946800   0.3648340  )
        15           H   tau(  15) = (   0.6380630   0.4060130   0.3843110  )
        16           H   tau(  16) = (   0.2853710   0.6493130   0.2155630  )
        17           H   tau(  17) = (   0.2486830   0.5070940   0.2149750  )
        18           C   tau(  18) = (   0.6572040   0.7383040   0.6691680  )
        19           C   tau(  19) = (   0.6704690   0.7541710   0.5429850  )
        20           C   tau(  20) = (   0.5838280   0.6344530   0.6931790  )
        21           C   tau(  21) = (   0.5211980   0.2811730   0.3703750  )
        22           C   tau(  22) = (   0.5245570   0.1722850   0.3033790  )
        23           C   tau(  23) = (   0.4551260   0.3666390   0.3031270  )
        24           C   tau(  24) = (   0.3721800   0.4338020   0.3710460  )
        25           C   tau(  25) = (   0.3648760   0.5525130   0.3290690  )
        26           N   tau(  26) = (   0.6091830   0.8381260   0.7213870  )
        27           N   tau(  27) = (   0.6368040   0.3213040   0.3871650  )
        28           N   tau(  28) = (   0.2942700   0.5710670   0.2469620  )
        29           O   tau(  29) = (   0.5907130   0.7856540   0.4848880  )
        30           O   tau(  30) = (   0.4801450   0.6386510   0.6354180  )
        31           O   tau(  31) = (   0.4589880   0.1000000   0.3287330  )
        32           O   tau(  32) = (   0.4210410   0.6265610   0.3706270  )

     number of k points=    36
                       cart. coord. in units 2pi/alat
        k(    1) = (   0.0000000   0.0000000   0.0000000), wk =   0.0312500
        k(    2) = (   0.0000000   0.0000000   0.2500000), wk =   0.0625000
        k(    3) = (   0.0000000   0.0000000  -0.5000000), wk =   0.0312500
        k(    4) = (   0.0000000   0.2500000   0.2500000), wk =   0.0625000
        k(    5) = (   0.0000000   0.2500000  -0.5000000), wk =   0.0625000
        k(    6) = (   0.0000000  -0.5000000  -0.5000000), wk =   0.0312500
        k(    7) = (   0.2500000   0.2500000   0.2500000), wk =   0.0625000
        k(    8) = (   0.2500000   0.2500000  -0.5000000), wk =   0.0625000
        k(    9) = (   0.2500000  -0.5000000  -0.5000000), wk =   0.0625000
        k(   10) = (  -0.5000000  -0.5000000  -0.5000000), wk =   0.0312500
        k(   11) = (   0.2500000   0.0000000   0.0000000), wk =   0.0625000
        k(   12) = (   0.0000000   0.2500000   0.0000000), wk =   0.0625000
        k(   13) = (  -0.5000000   0.0000000   0.0000000), wk =   0.0312500
        k(   14) = (   0.0000000  -0.5000000   0.0000000), wk =   0.0312500
        k(   15) = (   0.0000000  -0.2500000   0.2500000), wk =   0.0625000
        k(   16) = (   0.2500000   0.0000000  -0.2500000), wk =   0.0625000
        k(   17) = (  -0.2500000   0.0000000  -0.2500000), wk =   0.0625000
        k(   18) = (   0.2500000  -0.2500000   0.0000000), wk =   0.0625000
        k(   19) = (  -0.2500000  -0.2500000   0.0000000), wk =   0.0625000
        k(   20) = (   0.2500000   0.0000000   0.5000000), wk =   0.0625000
        k(   21) = (  -0.5000000  -0.2500000   0.0000000), wk =   0.0625000
        k(   22) = (   0.0000000  -0.5000000   0.2500000), wk =   0.0625000
        k(   23) = (   0.2500000  -0.5000000   0.0000000), wk =   0.0625000
        k(   24) = (  -0.5000000   0.0000000   0.2500000), wk =   0.0625000
        k(   25) = (  -0.5000000   0.0000000   0.5000000), wk =   0.0312500
        k(   26) = (  -0.5000000   0.5000000   0.0000000), wk =   0.0312500
        k(   27) = (  -0.2500000  -0.2500000   0.2500000), wk =   0.0625000
        k(   28) = (  -0.2500000   0.2500000  -0.2500000), wk =   0.0625000
        k(   29) = (   0.2500000  -0.2500000  -0.2500000), wk =   0.0625000
        k(   30) = (  -0.2500000   0.2500000   0.5000000), wk =   0.0625000
        k(   31) = (  -0.5000000  -0.2500000   0.2500000), wk =   0.0625000
        k(   32) = (   0.5000000  -0.2500000  -0.2500000), wk =   0.0625000
        k(   33) = (  -0.2500000  -0.5000000   0.2500000), wk =   0.0625000
        k(   34) = (  -0.2500000   0.5000000  -0.2500000), wk =   0.0625000
        k(   35) = (  -0.5000000   0.2500000   0.5000000), wk =   0.0625000
        k(   36) = (  -0.5000000   0.5000000   0.2500000), wk =   0.0625000

     Dense  grid:  3720285 G-vectors     FFT dimensions: ( 200, 200, 200)

     Smooth grid:  1315387 G-vectors     FFT dimensions: ( 135, 135, 135)

     Largest allocated arrays     est. size (Mb)     dimensions
        Kohn-Sham Wavefunctions         9.27 Mb     (   13802,   44)
        NL pseudopotentials            32.43 Mb     (   13802,  154)
        Each V/rho on FFT grid         10.38 Mb     (  680000)
        Each G-vector array             2.37 Mb     (  310025)
        G-vector shells                 0.06 Mb     (    7670)
     Largest temporary arrays     est. size (Mb)     dimensions
        Auxiliary wavefunctions        37.07 Mb     (   13802,  176)
        Each subspace H/S matrix        0.12 Mb     (      88,   88)
        Each <psi_i|beta_j> matrix      0.10 Mb     (     154,   44)
        Arrays for rho mixing          83.01 Mb     (  680000,    8)

     Initial potential from superposition of free atoms
     Check: negative starting charge=   -0.000121

     starting charge   87.99945, renormalised to   88.00000

     negative rho (up, down):  1.212E-04 0.000E+00
     Starting wfc are   77 randomized atomic wfcs
     Checking if some PAW data can be deallocated... 

     total cpu time spent up to now is      319.2 secs

     per-process dynamical memory:   537.6 Mb

     Self-consistent Calculation

     iteration #  1     ecut=    90.00 Ry     beta=0.40
     Davidson diagonalization with overlap
     ethr =  1.00E-02,  avg # of iterations =  2.0

     negative rho (up, down):  1.808E-04 0.000E+00

     total cpu time spent up to now is      855.1 secs

     total energy              =    -412.01499199 Ry
     Harris-Foulkes estimate   =    -414.00918155 Ry
     estimated scf accuracy    <       4.10392447 Ry

     iteration #  2     ecut=    90.00 Ry     beta=0.40
     Davidson diagonalization with overlap
     ethr =  4.66E-03,  avg # of iterations =  3.0

     negative rho (up, down):  2.383E-04 0.000E+00

     total cpu time spent up to now is     1372.0 secs

     total energy              =    -412.58041000 Ry
     Harris-Foulkes estimate   =    -412.74409802 Ry
     estimated scf accuracy    <       0.45324684 Ry

     iteration #  3     ecut=    90.00 Ry     beta=0.40
     Davidson diagonalization with overlap
     ethr =  5.15E-04,  avg # of iterations =  4.0

     negative rho (up, down):  3.231E-04 0.000E+00

     total cpu time spent up to now is     1806.0 secs

     total energy              =    -412.59194998 Ry
     Harris-Foulkes estimate   =    -412.64501609 Ry
     estimated scf accuracy    <       0.14377875 Ry

     iteration #  4     ecut=    90.00 Ry     beta=0.40
     Davidson diagonalization with overlap
     ethr =  1.63E-04,  avg # of iterations =  4.0

     negative rho (up, down):  4.055E-04 0.000E+00

     total cpu time spent up to now is     2202.7 secs

     total energy              =    -412.59769051 Ry
     Harris-Foulkes estimate   =    -412.60951288 Ry
     estimated scf accuracy    <       0.03180061 Ry

     iteration #  5     ecut=    90.00 Ry     beta=0.40
     Davidson diagonalization with overlap
     ethr =  3.61E-05,  avg # of iterations =  4.0

     negative rho (up, down):  4.129E-04 0.000E+00

     total cpu time spent up to now is     2677.7 secs

     total energy              =    -412.60137936 Ry
     Harris-Foulkes estimate   =    -412.60265633 Ry
     estimated scf accuracy    <       0.00284962 Ry

     iteration #  6     ecut=    90.00 Ry     beta=0.40
     Davidson diagonalization with overlap
     ethr =  3.24E-06,  avg # of iterations =  4.0

     negative rho (up, down):  4.173E-04 0.000E+00

     total cpu time spent up to now is     3218.1 secs

     total energy              =    -412.60201687 Ry
     Harris-Foulkes estimate   =    -412.60217356 Ry
     estimated scf accuracy    <       0.00050324 Ry

     iteration #  7     ecut=    90.00 Ry     beta=0.40
     Davidson diagonalization with overlap
     ethr =  5.72E-07,  avg # of iterations =  4.0

     negative rho (up, down):  4.143E-04 0.000E+00

     total cpu time spent up to now is     3696.6 secs

     total energy              =    -412.60207929 Ry
     Harris-Foulkes estimate   =    -412.60212853 Ry
     estimated scf accuracy    <       0.00012841 Ry

     iteration #  8     ecut=    90.00 Ry     beta=0.40
     Davidson diagonalization with overlap
     ethr =  1.46E-07,  avg # of iterations =  3.7

     negative rho (up, down):  4.120E-04 0.000E+00

     total cpu time spent up to now is     4155.5 secs

     total energy              =    -412.60210364 Ry
     Harris-Foulkes estimate   =    -412.60210562 Ry
     estimated scf accuracy    <       0.00001452 Ry

     iteration #  9     ecut=    90.00 Ry     beta=0.40
     Davidson diagonalization with overlap
     ethr =  1.65E-08,  avg # of iterations =  3.0

     negative rho (up, down):  4.110E-04 0.000E+00

     total cpu time spent up to now is     4635.8 secs

     total energy              =    -412.60210569 Ry
     Harris-Foulkes estimate   =    -412.60210609 Ry
     estimated scf accuracy    <       0.00000278 Ry

     iteration # 10     ecut=    90.00 Ry     beta=0.40
     Davidson diagonalization with overlap
     ethr =  3.16E-09,  avg # of iterations =  3.4

     negative rho (up, down):  4.104E-04 0.000E+00

     total cpu time spent up to now is     5115.1 secs

     total energy              =    -412.60210633 Ry
     Harris-Foulkes estimate   =    -412.60210636 Ry
     estimated scf accuracy    <       0.00000051 Ry

     iteration # 11     ecut=    90.00 Ry     beta=0.40
     Davidson diagonalization with overlap
     ethr =  5.84E-10,  avg # of iterations =  3.0

     negative rho (up, down):  4.104E-04 0.000E+00

     total cpu time spent up to now is     5531.1 secs

     End of self-consistent calculation

          k = 0.0000 0.0000 0.0000 (164415 PWs)   bands (ev):

   -25.2597 -24.9024 -24.6297 -24.2069 -21.8838 -21.5773 -21.1506 -18.9964
   -17.2184 -16.7789 -14.8762 -14.7715 -13.7296 -13.2460 -12.6434 -12.5890
   -12.1402 -11.8655 -11.2324 -11.1814 -10.6620 -10.4699 -10.4394  -9.8160
    -9.6453  -9.3289  -9.2131  -9.0879  -8.9485  -8.7112  -8.5001  -8.2078
    -7.8073  -7.7512  -7.6561  -7.4952  -6.6721  -5.5062  -5.2191  -5.1214
    -4.8308  -4.5734  -4.3550  -4.0496

          k = 0.0000 0.0000 0.2500 (164312 PWs)   bands (ev):

   -25.2597 -24.9024 -24.6297 -24.2069 -21.8838 -21.5773 -21.1506 -18.9964
   -17.2184 -16.7789 -14.8762 -14.7715 -13.7296 -13.2460 -12.6434 -12.5890
   -12.1402 -11.8655 -11.2324 -11.1814 -10.6620 -10.4699 -10.4394  -9.8160
    -9.6453  -9.3289  -9.2131  -9.0879  -8.9485  -8.7112  -8.5001  -8.2078
    -7.8073  -7.7512  -7.6561  -7.4952  -6.6721  -5.5062  -5.2191  -5.1214
    -4.8308  -4.5734  -4.3550  -4.0495

          k = 0.0000 0.0000-0.5000 (164316 PWs)   bands (ev):

   -25.2597 -24.9024 -24.6297 -24.2069 -21.8838 -21.5773 -21.1506 -18.9964
   -17.2184 -16.7789 -14.8762 -14.7715 -13.7296 -13.2460 -12.6434 -12.5890
   -12.1402 -11.8655 -11.2324 -11.1814 -10.6620 -10.4699 -10.4394  -9.8160
    -9.6453  -9.3289  -9.2132  -9.0879  -8.9485  -8.7112  -8.5001  -8.2079
    -7.8074  -7.7512  -7.6561  -7.4952  -6.6721  -5.5062  -5.2192  -5.1214
    -4.8308  -4.5734  -4.3550  -4.0494

          k = 0.0000 0.2500 0.2500 (164368 PWs)   bands (ev):

   -25.2597 -24.9024 -24.6297 -24.2069 -21.8838 -21.5773 -21.1506 -18.9964
   -17.2184 -16.7789 -14.8761 -14.7715 -13.7296 -13.2460 -12.6434 -12.5891
   -12.1402 -11.8655 -11.2325 -11.1813 -10.6619 -10.4699 -10.4391  -9.8165
    -9.6452  -9.3294  -9.2129  -9.0880  -8.9485  -8.7111  -8.4998  -8.2071
    -7.8072  -7.7547  -7.6535  -7.4952  -6.6721  -5.5062  -5.2191  -5.1213
    -4.8309  -4.5719  -4.3565  -4.0496

          k = 0.0000 0.2500-0.5000 (164430 PWs)   bands (ev):

   -25.2597 -24.9024 -24.6297 -24.2069 -21.8838 -21.5773 -21.1506 -18.9964
   -17.2184 -16.7789 -14.8761 -14.7715 -13.7296 -13.2460 -12.6434 -12.5891
   -12.1402 -11.8655 -11.2325 -11.1813 -10.6619 -10.4699 -10.4391  -9.8165
    -9.6452  -9.3294  -9.2129  -9.0880  -8.9485  -8.7111  -8.4998  -8.2071
    -7.8072  -7.7547  -7.6535  -7.4952  -6.6720  -5.5062  -5.2191  -5.1214
    -4.8309  -4.5719  -4.3565  -4.0495

          k = 0.0000-0.5000-0.5000 (164352 PWs)   bands (ev):

   -25.2597 -24.9024 -24.6297 -24.2069 -21.8838 -21.5773 -21.1506 -18.9964
   -17.2184 -16.7789 -14.8761 -14.7715 -13.7296 -13.2461 -12.6434 -12.5891
   -12.1402 -11.8656 -11.2326 -11.1812 -10.6618 -10.4698 -10.4388  -9.8170
    -9.6451  -9.3300  -9.2126  -9.0880  -8.9485  -8.7109  -8.4995  -8.2064
    -7.8070  -7.7580  -7.6510  -7.4953  -6.6720  -5.5061  -5.2191  -5.1213
    -4.8310  -4.5704  -4.3580  -4.0496

          k = 0.2500 0.2500 0.2500 (164439 PWs)   bands (ev):

   -25.2597 -24.9024 -24.6297 -24.2069 -21.8838 -21.5773 -21.1506 -18.9964
   -17.2184 -16.7789 -14.8761 -14.7715 -13.7296 -13.2460 -12.6434 -12.5891
   -12.1402 -11.8655 -11.2325 -11.1813 -10.6619 -10.4699 -10.4391  -9.8165
    -9.6452  -9.3294  -9.2129  -9.0880  -8.9485  -8.7111  -8.4998  -8.2071
    -7.8072  -7.7547  -7.6535  -7.4952  -6.6721  -5.5062  -5.2191  -5.1213
    -4.8309  -4.5719  -4.3565  -4.0496

          k = 0.2500 0.2500-0.5000 (164424 PWs)   bands (ev):

   -25.2597 -24.9024 -24.6297 -24.2069 -21.8838 -21.5773 -21.1506 -18.9964
   -17.2184 -16.7789 -14.8761 -14.7715 -13.7296 -13.2460 -12.6434 -12.5891
   -12.1402 -11.8655 -11.2325 -11.1813 -10.6619 -10.4699 -10.4391  -9.8165
    -9.6452  -9.3294  -9.2129  -9.0880  -8.9485  -8.7111  -8.4998  -8.2071
    -7.8072  -7.7547  -7.6535  -7.4952  -6.6720  -5.5062  -5.2191  -5.1214
    -4.8309  -4.5719  -4.3565  -4.0495

          k = 0.2500-0.5000-0.5000 (164380 PWs)   bands (ev):

   -25.2597 -24.9024 -24.6297 -24.2069 -21.8838 -21.5773 -21.1506 -18.9964
   -17.2184 -16.7789 -14.8761 -14.7715 -13.7296 -13.2461 -12.6434 -12.5891
   -12.1402 -11.8656 -11.2326 -11.1812 -10.6618 -10.4698 -10.4388  -9.8170
    -9.6451  -9.3300  -9.2126  -9.0880  -8.9485  -8.7109  -8.4995  -8.2064
    -7.8070  -7.7580  -7.6510  -7.4953  -6.6720  -5.5062  -5.2191  -5.1213
    -4.8310  -4.5704  -4.3580  -4.0496

          k =-0.5000-0.5000-0.5000 (164968 PWs)   bands (ev):

   -25.2597 -24.9024 -24.6297 -24.2069 -21.8838 -21.5773 -21.1506 -18.9964
   -17.2184 -16.7789 -14.8761 -14.7715 -13.7296 -13.2461 -12.6434 -12.5891
   -12.1402 -11.8656 -11.2326 -11.1812 -10.6618 -10.4698 -10.4388  -9.8170
    -9.6451  -9.3300  -9.2126  -9.0880  -8.9485  -8.7109  -8.4995  -8.2064
    -7.8070  -7.7580  -7.6510  -7.4953  -6.6720  -5.5062  -5.2191  -5.1213
    -4.8310  -4.5704  -4.3580  -4.0496

          k = 0.2500 0.0000 0.0000 (164312 PWs)   bands (ev):

   -25.2597 -24.9024 -24.6297 -24.2069 -21.8838 -21.5773 -21.1506 -18.9964
   -17.2184 -16.7789 -14.8762 -14.7715 -13.7296 -13.2460 -12.6434 -12.5890
   -12.1402 -11.8655 -11.2324 -11.1814 -10.6620 -10.4699 -10.4394  -9.8160
    -9.6453  -9.3289  -9.2131  -9.0879  -8.9485  -8.7112  -8.5001  -8.2078
    -7.8073  -7.7512  -7.6561  -7.4952  -6.6721  -5.5062  -5.2192  -5.1214
    -4.8308  -4.5734  -4.3549  -4.0496

          k = 0.0000 0.2500 0.0000 (164312 PWs)   bands (ev):

   -25.2597 -24.9024 -24.6297 -24.2069 -21.8838 -21.5773 -21.1506 -18.9964
   -17.2184 -16.7789 -14.8761 -14.7715 -13.7296 -13.2460 -12.6434 -12.5891
   -12.1402 -11.8655 -11.2325 -11.1813 -10.6619 -10.4699 -10.4391  -9.8165
    -9.6452  -9.3294  -9.2129  -9.0880  -8.9485  -8.7111  -8.4998  -8.2071
    -7.8072  -7.7547  -7.6535  -7.4952  -6.6721  -5.5062  -5.2191  -5.1213
    -4.8309  -4.5719  -4.3565  -4.0497

          k =-0.5000 0.0000 0.0000 (164316 PWs)   bands (ev):

   -25.2597 -24.9024 -24.6297 -24.2069 -21.8838 -21.5773 -21.1506 -18.9964
   -17.2184 -16.7789 -14.8762 -14.7715 -13.7296 -13.2460 -12.6434 -12.5890
   -12.1402 -11.8655 -11.2324 -11.1814 -10.6620 -10.4699 -10.4394  -9.8160
    -9.6453  -9.3289  -9.2131  -9.0879  -8.9485  -8.7112  -8.5001  -8.2078
    -7.8073  -7.7512  -7.6561  -7.4952  -6.6721  -5.5062  -5.2192  -5.1214
    -4.8308  -4.5734  -4.3549  -4.0496

          k = 0.0000-0.5000 0.0000 (164316 PWs)   bands (ev):

   -25.2597 -24.9024 -24.6297 -24.2069 -21.8838 -21.5773 -21.1506 -18.9964
   -17.2184 -16.7789 -14.8761 -14.7715 -13.7296 -13.2461 -12.6434 -12.5891
   -12.1402 -11.8656 -11.2326 -11.1812 -10.6618 -10.4698 -10.4388  -9.8170
    -9.6451  -9.3300  -9.2126  -9.0880  -8.9485  -8.7109  -8.4996  -8.2064
    -7.8070  -7.7580  -7.6510  -7.4953  -6.6721  -5.5062  -5.2191  -5.1212
    -4.8310  -4.5704  -4.3580  -4.0498

          k = 0.0000-0.2500 0.2500 (164368 PWs)   bands (ev):

   -25.2597 -24.9024 -24.6297 -24.2069 -21.8838 -21.5773 -21.1506 -18.9964
   -17.2184 -16.7789 -14.8761 -14.7715 -13.7296 -13.2460 -12.6434 -12.5891
   -12.1402 -11.8655 -11.2325 -11.1813 -10.6619 -10.4699 -10.4391  -9.8165
    -9.6452  -9.3294  -9.2129  -9.0880  -8.9485  -8.7111  -8.4998  -8.2071
    -7.8072  -7.7547  -7.6535  -7.4952  -6.6721  -5.5062  -5.2191  -5.1213
    -4.8309  -4.5719  -4.3565  -4.0496

          k = 0.2500 0.0000-0.2500 (164368 PWs)   bands (ev):

   -25.2597 -24.9024 -24.6297 -24.2069 -21.8838 -21.5773 -21.1506 -18.9964
   -17.2184 -16.7789 -14.8762 -14.7715 -13.7296 -13.2460 -12.6434 -12.5890
   -12.1402 -11.8655 -11.2324 -11.1814 -10.6620 -10.4699 -10.4394  -9.8160
    -9.6453  -9.3289  -9.2132  -9.0879  -8.9485  -8.7112  -8.5001  -8.2078
    -7.8073  -7.7512  -7.6561  -7.4952  -6.6721  -5.5062  -5.2192  -5.1214
    -4.8308  -4.5734  -4.3550  -4.0495

          k =-0.2500 0.0000-0.2500 (164368 PWs)   bands (ev):

   -25.2597 -24.9024 -24.6297 -24.2069 -21.8838 -21.5773 -21.1506 -18.9964
   -17.2184 -16.7789 -14.8762 -14.7715 -13.7296 -13.2460 -12.6434 -12.5890
   -12.1402 -11.8655 -11.2324 -11.1814 -10.6620 -10.4699 -10.4394  -9.8160
    -9.6453  -9.3289  -9.2132  -9.0879  -8.9485  -8.7112  -8.5001  -8.2078
    -7.8073  -7.7512  -7.6561  -7.4952  -6.6721  -5.5062  -5.2192  -5.1214
    -4.8308  -4.5734  -4.3550  -4.0495

          k = 0.2500-0.2500 0.0000 (164368 PWs)   bands (ev):

   -25.2597 -24.9024 -24.6297 -24.2069 -21.8838 -21.5773 -21.1506 -18.9964
   -17.2184 -16.7789 -14.8761 -14.7715 -13.7296 -13.2460 -12.6434 -12.5891
   -12.1402 -11.8655 -11.2325 -11.1813 -10.6619 -10.4699 -10.4391  -9.8165
    -9.6452  -9.3294  -9.2129  -9.0880  -8.9485  -8.7111  -8.4998  -8.2071
    -7.8072  -7.7547  -7.6535  -7.4952  -6.6721  -5.5062  -5.2191  -5.1213
    -4.8309  -4.5719  -4.3564  -4.0497

          k =-0.2500-0.2500 0.0000 (164368 PWs)   bands (ev):

   -25.2597 -24.9024 -24.6297 -24.2069 -21.8838 -21.5773 -21.1506 -18.9964
   -17.2184 -16.7789 -14.8761 -14.7715 -13.7296 -13.2460 -12.6434 -12.5891
   -12.1402 -11.8655 -11.2325 -11.1813 -10.6619 -10.4699 -10.4391  -9.8165
    -9.6452  -9.3294  -9.2129  -9.0880  -8.9485  -8.7111  -8.4998  -8.2071
    -7.8072  -7.7547  -7.6535  -7.4952  -6.6721  -5.5062  -5.2191  -5.1213
    -4.8309  -4.5719  -4.3564  -4.0497

          k = 0.2500 0.0000 0.5000 (164430 PWs)   bands (ev):

   -25.2597 -24.9024 -24.6297 -24.2069 -21.8838 -21.5773 -21.1506 -18.9964
   -17.2184 -16.7789 -14.8762 -14.7715 -13.7296 -13.2460 -12.6434 -12.5890
   -12.1402 -11.8655 -11.2324 -11.1814 -10.6620 -10.4699 -10.4394  -9.8160
    -9.6453  -9.3289  -9.2132  -9.0879  -8.9485  -8.7112  -8.5001  -8.2079
    -7.8073  -7.7512  -7.6561  -7.4952  -6.6721  -5.5062  -5.2192  -5.1215
    -4.8308  -4.5734  -4.3550  -4.0494

          k =-0.5000-0.2500 0.0000 (164430 PWs)   bands (ev):

   -25.2597 -24.9024 -24.6297 -24.2069 -21.8838 -21.5773 -21.1506 -18.9964
   -17.2184 -16.7789 -14.8761 -14.7715 -13.7296 -13.2460 -12.6434 -12.5891
   -12.1402 -11.8655 -11.2325 -11.1813 -10.6619 -10.4699 -10.4391  -9.8165
    -9.6452  -9.3294  -9.2129  -9.0880  -8.9485  -8.7111  -8.4998  -8.2071
    -7.8072  -7.7547  -7.6535  -7.4952  -6.6721  -5.5062  -5.2191  -5.1213
    -4.8309  -4.5719  -4.3564  -4.0497

          k = 0.0000-0.5000 0.2500 (164430 PWs)   bands (ev):

   -25.2597 -24.9024 -24.6297 -24.2069 -21.8838 -21.5773 -21.1506 -18.9964
   -17.2184 -16.7789 -14.8761 -14.7715 -13.7296 -13.2461 -12.6434 -12.5891
   -12.1402 -11.8656 -11.2326 -11.1812 -10.6618 -10.4698 -10.4388  -9.8170
    -9.6451  -9.3300  -9.2126  -9.0880  -8.9485  -8.7109  -8.4995  -8.2064
    -7.8070  -7.7580  -7.6510  -7.4953  -6.6720  -5.5062  -5.2191  -5.1213
    -4.8310  -4.5704  -4.3580  -4.0497

          k = 0.2500-0.5000 0.0000 (164430 PWs)   bands (ev):

   -25.2597 -24.9024 -24.6297 -24.2069 -21.8838 -21.5773 -21.1506 -18.9964
   -17.2184 -16.7789 -14.8761 -14.7715 -13.7296 -13.2461 -12.6434 -12.5891
   -12.1402 -11.8656 -11.2326 -11.1812 -10.6618 -10.4698 -10.4388  -9.8170
    -9.6451  -9.3300  -9.2126  -9.0880  -8.9485  -8.7109  -8.4996  -8.2064
    -7.8070  -7.7580  -7.6510  -7.4953  -6.6721  -5.5062  -5.2191  -5.1212
    -4.8310  -4.5704  -4.3580  -4.0498

          k =-0.5000 0.0000 0.2500 (164430 PWs)   bands (ev):

   -25.2597 -24.9024 -24.6297 -24.2069 -21.8838 -21.5773 -21.1506 -18.9964
   -17.2184 -16.7789 -14.8762 -14.7715 -13.7296 -13.2460 -12.6434 -12.5890
   -12.1402 -11.8655 -11.2324 -11.1814 -10.6620 -10.4699 -10.4394  -9.8160
    -9.6453  -9.3289  -9.2132  -9.0879  -8.9485  -8.7112  -8.5001  -8.2078
    -7.8073  -7.7512  -7.6561  -7.4952  -6.6721  -5.5062  -5.2192  -5.1214
    -4.8308  -4.5734  -4.3550  -4.0495

          k =-0.5000 0.0000 0.5000 (164352 PWs)   bands (ev):

   -25.2597 -24.9024 -24.6297 -24.2069 -21.8838 -21.5773 -21.1506 -18.9964
   -17.2184 -16.7789 -14.8762 -14.7715 -13.7296 -13.2460 -12.6434 -12.5890
   -12.1402 -11.8655 -11.2324 -11.1814 -10.6620 -10.4699 -10.4394  -9.8160
    -9.6453  -9.3289  -9.2132  -9.0879  -8.9485  -8.7112  -8.5001  -8.2079
    -7.8073  -7.7512  -7.6561  -7.4952  -6.6721  -5.5062  -5.2192  -5.1215
    -4.8308  -4.5734  -4.3550  -4.0494

          k =-0.5000 0.5000 0.0000 (164352 PWs)   bands (ev):

   -25.2597 -24.9024 -24.6297 -24.2069 -21.8838 -21.5773 -21.1506 -18.9964
   -17.2184 -16.7789 -14.8761 -14.7715 -13.7296 -13.2461 -12.6434 -12.5891
   -12.1402 -11.8656 -11.2326 -11.1812 -10.6618 -10.4698 -10.4388  -9.8170
    -9.6451  -9.3300  -9.2126  -9.0880  -8.9485  -8.7109  -8.4996  -8.2064
    -7.8070  -7.7580  -7.6510  -7.4953  -6.6721  -5.5062  -5.2191  -5.1212
    -4.8310  -4.5704  -4.3579  -4.0498

          k =-0.2500-0.2500 0.2500 (164439 PWs)   bands (ev):

   -25.2597 -24.9024 -24.6297 -24.2069 -21.8838 -21.5773 -21.1506 -18.9964
   -17.2184 -16.7789 -14.8761 -14.7715 -13.7296 -13.2460 -12.6434 -12.5891
   -12.1402 -11.8655 -11.2325 -11.1813 -10.6619 -10.4699 -10.4391  -9.8165
    -9.6452  -9.3294  -9.2129  -9.0880  -8.9485  -8.7111  -8.4998  -8.2071
    -7.8072  -7.7547  -7.6535  -7.4952  -6.6721  -5.5062  -5.2191  -5.1213
    -4.8309  -4.5719  -4.3565  -4.0496

          k =-0.2500 0.2500-0.2500 (164439 PWs)   bands (ev):

   -25.2597 -24.9024 -24.6297 -24.2069 -21.8838 -21.5773 -21.1506 -18.9964
   -17.2184 -16.7789 -14.8761 -14.7715 -13.7296 -13.2460 -12.6434 -12.5891
   -12.1402 -11.8655 -11.2325 -11.1813 -10.6619 -10.4699 -10.4391  -9.8165
    -9.6452  -9.3294  -9.2129  -9.0880  -8.9485  -8.7111  -8.4998  -8.2071
    -7.8072  -7.7547  -7.6535  -7.4952  -6.6721  -5.5062  -5.2191  -5.1213
    -4.8309  -4.5719  -4.3565  -4.0496

          k = 0.2500-0.2500-0.2500 (164439 PWs)   bands (ev):

   -25.2597 -24.9024 -24.6297 -24.2069 -21.8838 -21.5773 -21.1506 -18.9964
   -17.2184 -16.7789 -14.8761 -14.7715 -13.7296 -13.2460 -12.6434 -12.5891
   -12.1402 -11.8655 -11.2325 -11.1813 -10.6619 -10.4699 -10.4391  -9.8165
    -9.6452  -9.3294  -9.2129  -9.0880  -8.9485  -8.7111  -8.4998  -8.2071
    -7.8072  -7.7547  -7.6535  -7.4952  -6.6721  -5.5062  -5.2191  -5.1213
    -4.8309  -4.5719  -4.3565  -4.0496

          k =-0.2500 0.2500 0.5000 (164424 PWs)   bands (ev):

   -25.2597 -24.9024 -24.6297 -24.2069 -21.8838 -21.5773 -21.1506 -18.9964
   -17.2184 -16.7789 -14.8761 -14.7715 -13.7296 -13.2460 -12.6434 -12.5891
   -12.1402 -11.8655 -11.2325 -11.1813 -10.6619 -10.4699 -10.4391  -9.8165
    -9.6452  -9.3294  -9.2129  -9.0880  -8.9485  -8.7111  -8.4998  -8.2071
    -7.8072  -7.7547  -7.6535  -7.4952  -6.6720  -5.5062  -5.2191  -5.1214
    -4.8309  -4.5719  -4.3565  -4.0495

          k =-0.5000-0.2500 0.2500 (164424 PWs)   bands (ev):

   -25.2597 -24.9024 -24.6297 -24.2069 -21.8838 -21.5773 -21.1506 -18.9964
   -17.2184 -16.7789 -14.8761 -14.7715 -13.7296 -13.2460 -12.6434 -12.5891
   -12.1402 -11.8655 -11.2325 -11.1813 -10.6619 -10.4699 -10.4391  -9.8165
    -9.6452  -9.3294  -9.2129  -9.0880  -8.9485  -8.7111  -8.4998  -8.2071
    -7.8072  -7.7547  -7.6535  -7.4952  -6.6721  -5.5062  -5.2191  -5.1213
    -4.8309  -4.5719  -4.3565  -4.0496

          k = 0.5000-0.2500-0.2500 (164424 PWs)   bands (ev):

   -25.2597 -24.9024 -24.6297 -24.2069 -21.8838 -21.5773 -21.1506 -18.9964
   -17.2184 -16.7789 -14.8761 -14.7715 -13.7296 -13.2460 -12.6434 -12.5891
   -12.1402 -11.8655 -11.2325 -11.1813 -10.6619 -10.4699 -10.4391  -9.8165
    -9.6452  -9.3294  -9.2129  -9.0880  -8.9485  -8.7111  -8.4998  -8.2071
    -7.8072  -7.7547  -7.6535  -7.4952  -6.6721  -5.5062  -5.2191  -5.1213
    -4.8309  -4.5719  -4.3564  -4.0496

          k =-0.2500-0.5000 0.2500 (164424 PWs)   bands (ev):

   -25.2597 -24.9024 -24.6297 -24.2069 -21.8838 -21.5773 -21.1506 -18.9964
   -17.2184 -16.7789 -14.8761 -14.7715 -13.7296 -13.2461 -12.6434 -12.5891
   -12.1402 -11.8656 -11.2326 -11.1812 -10.6618 -10.4698 -10.4388  -9.8170
    -9.6451  -9.3300  -9.2126  -9.0880  -8.9485  -8.7109  -8.4996  -8.2064
    -7.8070  -7.7580  -7.6510  -7.4953  -6.6720  -5.5062  -5.2191  -5.1213
    -4.8310  -4.5704  -4.3580  -4.0497

          k =-0.2500 0.5000-0.2500 (164424 PWs)   bands (ev):

   -25.2597 -24.9024 -24.6297 -24.2069 -21.8838 -21.5773 -21.1506 -18.9964
   -17.2184 -16.7789 -14.8761 -14.7715 -13.7296 -13.2461 -12.6434 -12.5891
   -12.1402 -11.8656 -11.2326 -11.1812 -10.6618 -10.4698 -10.4388  -9.8170
    -9.6451  -9.3300  -9.2126  -9.0880  -8.9485  -8.7109  -8.4996  -8.2064
    -7.8070  -7.7580  -7.6510  -7.4953  -6.6720  -5.5062  -5.2191  -5.1213
    -4.8310  -4.5704  -4.3580  -4.0497

          k =-0.5000 0.2500 0.5000 (164380 PWs)   bands (ev):

   -25.2597 -24.9024 -24.6297 -24.2069 -21.8838 -21.5773 -21.1506 -18.9964
   -17.2184 -16.7789 -14.8761 -14.7715 -13.7296 -13.2460 -12.6434 -12.5891
   -12.1402 -11.8655 -11.2325 -11.1813 -10.6619 -10.4699 -10.4391  -9.8165
    -9.6452  -9.3294  -9.2129  -9.0880  -8.9485  -8.7111  -8.4998  -8.2071
    -7.8072  -7.7547  -7.6535  -7.4952  -6.6720  -5.5062  -5.2191  -5.1214
    -4.8309  -4.5719  -4.3565  -4.0495

          k =-0.5000 0.5000 0.2500 (164380 PWs)   bands (ev):

   -25.2597 -24.9024 -24.6297 -24.2069 -21.8838 -21.5773 -21.1506 -18.9964
   -17.2184 -16.7789 -14.8761 -14.7715 -13.7296 -13.2461 -12.6434 -12.5891
   -12.1402 -11.8656 -11.2326 -11.1812 -10.6618 -10.4698 -10.4388  -9.8170
    -9.6451  -9.3300  -9.2126  -9.0880  -8.9485  -8.7109  -8.4996  -8.2064
    -7.8070  -7.7580  -7.6510  -7.4953  -6.6720  -5.5062  -5.2191  -5.1213
    -4.8310  -4.5704  -4.3580  -4.0497

     highest occupied level (ev):    -4.0494

!    total energy              =    -412.60210637 Ry
     Harris-Foulkes estimate   =    -412.60210639 Ry
     estimated scf accuracy    <       0.00000007 Ry

     total all-electron energy =     -1554.227008 Ry

     The total energy is the sum of the following terms:

     one-electron contribution =    -976.46644486 Ry
     hartree contribution      =     505.23287621 Ry
     xc contribution           =     -93.92718082 Ry
     ewald contribution        =     259.87034788 Ry
     one-center paw contrib.   =    -107.31170477 Ry

     convergence has been achieved in  11 iterations

     Writing output data file aiida.save

     init_run     :    292.04s CPU    317.08s WALL (       1 calls)
     electrons    :   5159.69s CPU   5212.35s WALL (       1 calls)

     Called by init_run:
     wfcinit      :    274.76s CPU    297.31s WALL (       1 calls)
     potinit      :      3.60s CPU      4.04s WALL (       1 calls)

     Called by electrons:
     c_bands      :   4430.81s CPU   4478.92s WALL (      11 calls)
     sum_band     :    642.74s CPU    646.50s WALL (      11 calls)
     v_of_rho     :     17.80s CPU     18.13s WALL (      12 calls)
     newd         :     66.02s CPU     67.29s WALL (      12 calls)
     mix_rho      :      3.15s CPU      3.25s WALL (      11 calls)

     Called by c_bands:
     init_us_2    :     29.61s CPU     29.73s WALL (     828 calls)
     cegterg      :   4376.10s CPU   4422.78s WALL (     396 calls)

     Called by *egterg:
     h_psi        :   2935.74s CPU   2968.52s WALL (    1804 calls)
     s_psi        :    573.18s CPU    577.38s WALL (    1804 calls)
     g_psi        :      5.68s CPU      5.84s WALL (    1372 calls)
     cdiaghg      :     32.10s CPU     32.77s WALL (    1768 calls)

     Called by h_psi:
     add_vuspsi   :    576.94s CPU    580.65s WALL (    1804 calls)

     General routines
     calbec       :    762.05s CPU    767.56s WALL (    2200 calls)
     fft          :     20.02s CPU     20.28s WALL (     188 calls)
     ffts         :      0.66s CPU      0.70s WALL (      23 calls)
     fftw         :   1678.70s CPU   1700.15s WALL (  115522 calls)
     interpolate  :      3.12s CPU      3.20s WALL (      23 calls)
     davcio       :      0.02s CPU      0.50s WALL (      36 calls)

     Parallel routines
     fft_scatter  :    779.47s CPU    792.05s WALL (  115733 calls)

     PAW routines
     PAW_pot      :      3.44s CPU      3.44s WALL (      12 calls)

     PWSCF        :     1h30m CPU        1h32m WALL


   This run was terminated on:   2:45:28   7Jan2023            

=------------------------------------------------------------------------------=
   JOB DONE.
=------------------------------------------------------------------------------=
