
     Program PWSCF v.5.1 starts on  6Jan2023 at 17:21:10 

     This program is part of the open-source Quantum ESPRESSO suite
     for quantum simulation of materials; please cite
         "P. Giannozzi et al., J. Phys.:Condens. Matter 21 395502 (2009);
          URL http://www.quantum-espresso.org", 
     in publications or presentations arising from this work. More details at
     http://www.quantum-espresso.org/quote

     Parallel version (MPI), running on    12 processors
     R & G space division:  proc/nbgrp/npool/nimage =      12
     Waiting for input...
     Reading input from standard input

     Current dimensions of program PWSCF are:
     Max number of different atomic species (ntypx) = 10
     Max number of k-points (npk) =  40000
     Max angular momentum in pseudopotentials (lmaxx) =  3
               file C.pbesol-n-kjpaw_psl.1.0.0.UPF: wavefunction(s)  2S 2P renormalized
               file H.pbesol-kjpaw_psl.0.1.UPF: wavefunction(s)  1S renormalized
               file N.pbesol-n-kjpaw_psl.0.1.UPF: wavefunction(s)  2P renormalized
               file O.pbesol-n-kjpaw_psl.0.1.UPF: wavefunction(s)  2P renormalized

     Subspace diagonalization in iterative solution of the eigenvalue problem:
     scalapack distributed-memory algorithm (size of sub-group:  2*  2 procs)


     Parallelization info
     --------------------
     sticks:   dense  smooth     PW     G-vecs:    dense   smooth      PW
     Min        2417    1207    314               310023   109593   14537
     Max        2418    1208    316               310028   109635   14540
     Sum       29005   14485   3777              3720285  1315387  174461



     bravais-lattice index     =            0
     lattice parameter (alat)  =      22.5090  a.u.
     unit-cell volume          =   11404.2970 (a.u.)^3
     number of atoms/cell      =           32
     number of atomic types    =            4
     number of electrons       =        88.00
     number of Kohn-Sham states=           44
     kinetic-energy cutoff     =      90.0000  Ry
     charge density cutoff     =     720.0000  Ry
     convergence threshold     =      1.0E-07
     mixing beta               =       0.4000
     number of iterations used =            8  plain     mixing
     Exchange-correlation      =  SLA  PW   PSX  PSC ( 1  4 10  8 0)

     celldm(1)=  22.508999  celldm(2)=   0.000000  celldm(3)=   0.000000
     celldm(4)=   0.000000  celldm(5)=   0.000000  celldm(6)=   0.000000

     crystal axes: (cart. coord. in units of alat)
               a(1) = (   1.000000   0.000000   0.000000 )  
               a(2) = (   0.000000   1.000000   0.000000 )  
               a(3) = (   0.000000   0.000000   1.000000 )  

     reciprocal axes: (cart. coord. in units 2 pi/alat)
               b(1) = (  1.000000  0.000000  0.000000 )  
               b(2) = (  0.000000  1.000000  0.000000 )  
               b(3) = (  0.000000  0.000000  1.000000 )  


     PseudoPot. # 1 for  C read from file:
     ./pseudo/C.pbesol-n-kjpaw_psl.1.0.0.UPF
     MD5 check sum: 5f3a56537b2bcef3348431d8311bb923
     Pseudo is Projector augmented-wave + core cor, Zval =  4.0
     Generated using "atomic" code by A. Dal Corso  v.6.0 svn rev. 13079
     Shape of augmentation charge: PSQ
     Using radial grid of 1073 points,  4 beta functions with: 
                l(1) =   0
                l(2) =   0
                l(3) =   1
                l(4) =   1
     Q(r) pseudized with 0 coefficients 


     PseudoPot. # 2 for  H read from file:
     ./pseudo/H.pbesol-kjpaw_psl.0.1.UPF
     MD5 check sum: 27a6b98f1514c59d399e798f1258b8b7
     Pseudo is Projector augmented-wave, Zval =  1.0
     Generated using "atomic" code by A. Dal Corso  v.5.0.2 svn rev. 9415
     Shape of augmentation charge: PSQ
     Using radial grid of  929 points,  2 beta functions with: 
                l(1) =   0
                l(2) =   0
     Q(r) pseudized with 0 coefficients 


     PseudoPot. # 3 for  N read from file:
     ./pseudo/N.pbesol-n-kjpaw_psl.0.1.UPF
     MD5 check sum: 15bd223d5d75e9eda893d0f4e6bdad1b
     Pseudo is Projector augmented-wave + core cor, Zval =  5.0
     Generated using "atomic" code by A. Dal Corso  v.6.3
     Shape of augmentation charge: PSQ
     Using radial grid of 1085 points,  4 beta functions with: 
                l(1) =   0
                l(2) =   0
                l(3) =   1
                l(4) =   1
     Q(r) pseudized with 0 coefficients 


     PseudoPot. # 4 for  O read from file:
     ./pseudo/O.pbesol-n-kjpaw_psl.0.1.UPF
     MD5 check sum: 81d73d1479e654e5638b0319f0d6c2c7
     Pseudo is Projector augmented-wave + core cor, Zval =  6.0
     Generated using "atomic" code by A. Dal Corso  v.6.0 svn rev. 13079
     Shape of augmentation charge: BESSEL
     Using radial grid of 1095 points,  4 beta functions with: 
                l(1) =   0
                l(2) =   0
                l(3) =   1
                l(4) =   1
     Q(r) pseudized with 0 coefficients 


     atomic species   valence    mass     pseudopotential
        C              4.00    12.01070      C( 1.00)
        H              1.00     1.00794      H( 1.00)
        N              5.00    14.00670      N( 1.00)
        O              6.00    15.99940      O( 1.00)

     No symmetry found



   Cartesian axes

     site n.     atom                  positions (alat units)
         1           H   tau(   1) = (   0.6590510   0.8635640   0.7850250  )
         2           H   tau(   2) = (   0.6030540   0.9000000   0.6637950  )
         3           H   tau(   3) = (   0.7401510   0.7250390   0.7055200  )
         4           H   tau(   4) = (   0.7513170   0.7375490   0.5035260  )
         5           H   tau(   5) = (   0.5660300   0.6326900   0.7829260  )
         6           H   tau(   6) = (   0.6292480   0.5594820   0.6669850  )
         7           H   tau(   7) = (   0.4522720   0.5637630   0.6245880  )
         8           H   tau(   8) = (   0.6651800   0.2951100   0.4626400  )
         9           H   tau(   9) = (   0.4817400   0.2682440   0.4519780  )
        10           H   tau(  10) = (   0.5842480   0.1604470   0.2350400  )
        11           H   tau(  11) = (   0.4064330   0.3194560   0.2416730  )
        12           H   tau(  12) = (   0.5143140   0.4247350   0.2645920  )
        13           H   tau(  13) = (   0.4003880   0.4353970   0.4581070  )
        14           H   tau(  14) = (   0.2896530   0.3946800   0.3648340  )
        15           H   tau(  15) = (   0.6380630   0.4060130   0.3843110  )
        16           H   tau(  16) = (   0.2853710   0.6493130   0.2155630  )
        17           H   tau(  17) = (   0.2486830   0.5070940   0.2149750  )
        18           C   tau(  18) = (   0.6572040   0.7383040   0.6691680  )
        19           C   tau(  19) = (   0.6704690   0.7541710   0.5429850  )
        20           C   tau(  20) = (   0.5838280   0.6344530   0.6931790  )
        21           C   tau(  21) = (   0.5211980   0.2811730   0.3703750  )
        22           C   tau(  22) = (   0.5245570   0.1722850   0.3033790  )
        23           C   tau(  23) = (   0.4551260   0.3666390   0.3031270  )
        24           C   tau(  24) = (   0.3721800   0.4338020   0.3710460  )
        25           C   tau(  25) = (   0.3648760   0.5525130   0.3290690  )
        26           N   tau(  26) = (   0.6091830   0.8381260   0.7213870  )
        27           N   tau(  27) = (   0.6368040   0.3213040   0.3871650  )
        28           N   tau(  28) = (   0.2942700   0.5710670   0.2469620  )
        29           O   tau(  29) = (   0.5907130   0.7856540   0.4848880  )
        30           O   tau(  30) = (   0.4801450   0.6386510   0.6354180  )
        31           O   tau(  31) = (   0.4589880   0.1000000   0.3287330  )
        32           O   tau(  32) = (   0.4210410   0.6265610   0.3706270  )

     number of k points=    63
                       cart. coord. in units 2pi/alat
        k(    1) = (   0.0000000   0.0000000   0.0000000), wk =   0.0160000
        k(    2) = (   0.0000000   0.0000000   0.2000000), wk =   0.0320000
        k(    3) = (   0.0000000   0.0000000   0.4000000), wk =   0.0320000
        k(    4) = (   0.0000000   0.2000000   0.2000000), wk =   0.0320000
        k(    5) = (   0.0000000   0.2000000   0.4000000), wk =   0.0320000
        k(    6) = (   0.0000000   0.4000000   0.4000000), wk =   0.0320000
        k(    7) = (   0.2000000   0.2000000   0.2000000), wk =   0.0320000
        k(    8) = (   0.2000000   0.2000000   0.4000000), wk =   0.0320000
        k(    9) = (   0.2000000   0.4000000   0.4000000), wk =   0.0320000
        k(   10) = (   0.4000000   0.4000000   0.4000000), wk =   0.0320000
        k(   11) = (   0.2000000   0.0000000   0.0000000), wk =   0.0320000
        k(   12) = (   0.0000000   0.2000000   0.0000000), wk =   0.0320000
        k(   13) = (   0.4000000   0.0000000   0.0000000), wk =   0.0320000
        k(   14) = (   0.0000000   0.4000000   0.0000000), wk =   0.0320000
        k(   15) = (   0.0000000  -0.2000000   0.2000000), wk =   0.0320000
        k(   16) = (   0.2000000   0.0000000  -0.2000000), wk =   0.0320000
        k(   17) = (  -0.2000000   0.0000000  -0.2000000), wk =   0.0320000
        k(   18) = (   0.2000000  -0.2000000   0.0000000), wk =   0.0320000
        k(   19) = (  -0.2000000  -0.2000000   0.0000000), wk =   0.0320000
        k(   20) = (   0.0000000  -0.2000000   0.4000000), wk =   0.0320000
        k(   21) = (   0.2000000   0.0000000  -0.4000000), wk =   0.0320000
        k(   22) = (  -0.2000000   0.0000000  -0.4000000), wk =   0.0320000
        k(   23) = (   0.4000000  -0.2000000   0.0000000), wk =   0.0320000
        k(   24) = (  -0.4000000  -0.2000000   0.0000000), wk =   0.0320000
        k(   25) = (   0.0000000   0.4000000   0.2000000), wk =   0.0320000
        k(   26) = (   0.0000000   0.4000000  -0.2000000), wk =   0.0320000
        k(   27) = (   0.2000000   0.4000000   0.0000000), wk =   0.0320000
        k(   28) = (  -0.2000000   0.4000000   0.0000000), wk =   0.0320000
        k(   29) = (   0.4000000   0.0000000   0.2000000), wk =   0.0320000
        k(   30) = (   0.4000000   0.0000000  -0.2000000), wk =   0.0320000
        k(   31) = (   0.0000000  -0.4000000   0.4000000), wk =   0.0320000
        k(   32) = (   0.4000000   0.0000000  -0.4000000), wk =   0.0320000
        k(   33) = (  -0.4000000   0.0000000  -0.4000000), wk =   0.0320000
        k(   34) = (   0.4000000  -0.4000000   0.0000000), wk =   0.0320000
        k(   35) = (  -0.4000000  -0.4000000   0.0000000), wk =   0.0320000
        k(   36) = (  -0.2000000  -0.2000000   0.2000000), wk =   0.0320000
        k(   37) = (  -0.2000000   0.2000000  -0.2000000), wk =   0.0320000
        k(   38) = (   0.2000000  -0.2000000  -0.2000000), wk =   0.0320000
        k(   39) = (  -0.2000000  -0.2000000   0.4000000), wk =   0.0320000
        k(   40) = (  -0.2000000   0.2000000  -0.4000000), wk =   0.0320000
        k(   41) = (   0.2000000  -0.2000000  -0.4000000), wk =   0.0320000
        k(   42) = (   0.4000000  -0.2000000   0.2000000), wk =   0.0320000
        k(   43) = (  -0.4000000  -0.2000000  -0.2000000), wk =   0.0320000
        k(   44) = (   0.4000000   0.2000000  -0.2000000), wk =   0.0320000
        k(   45) = (  -0.4000000   0.2000000   0.2000000), wk =   0.0320000
        k(   46) = (  -0.2000000   0.4000000   0.2000000), wk =   0.0320000
        k(   47) = (  -0.2000000  -0.4000000  -0.2000000), wk =   0.0320000
        k(   48) = (   0.2000000   0.4000000  -0.2000000), wk =   0.0320000
        k(   49) = (   0.2000000  -0.4000000   0.2000000), wk =   0.0320000
        k(   50) = (  -0.2000000  -0.4000000   0.4000000), wk =   0.0320000
        k(   51) = (  -0.2000000   0.4000000  -0.4000000), wk =   0.0320000
        k(   52) = (   0.2000000  -0.4000000  -0.4000000), wk =   0.0320000
        k(   53) = (   0.4000000   0.2000000  -0.4000000), wk =   0.0320000
        k(   54) = (  -0.4000000  -0.2000000  -0.4000000), wk =   0.0320000
        k(   55) = (   0.4000000  -0.2000000   0.4000000), wk =   0.0320000
        k(   56) = (  -0.4000000   0.2000000   0.4000000), wk =   0.0320000
        k(   57) = (   0.4000000  -0.4000000   0.2000000), wk =   0.0320000
        k(   58) = (  -0.4000000  -0.4000000  -0.2000000), wk =   0.0320000
        k(   59) = (   0.4000000   0.4000000  -0.2000000), wk =   0.0320000
        k(   60) = (  -0.4000000   0.4000000   0.2000000), wk =   0.0320000
        k(   61) = (  -0.4000000  -0.4000000   0.4000000), wk =   0.0320000
        k(   62) = (  -0.4000000   0.4000000  -0.4000000), wk =   0.0320000
        k(   63) = (   0.4000000  -0.4000000  -0.4000000), wk =   0.0320000

     Dense  grid:  3720285 G-vectors     FFT dimensions: ( 200, 200, 200)

     Smooth grid:  1315387 G-vectors     FFT dimensions: ( 135, 135, 135)

     Largest allocated arrays     est. size (Mb)     dimensions
        Kohn-Sham Wavefunctions         9.22 Mb     (   13736,   44)
        NL pseudopotentials            32.28 Mb     (   13736,  154)
        Each V/rho on FFT grid         10.38 Mb     (  680000)
        Each G-vector array             2.37 Mb     (  310025)
        G-vector shells                 0.06 Mb     (    7656)
     Largest temporary arrays     est. size (Mb)     dimensions
        Auxiliary wavefunctions        36.89 Mb     (   13736,  176)
        Each subspace H/S matrix        0.12 Mb     (      88,   88)
        Each <psi_i|beta_j> matrix      0.10 Mb     (     154,   44)
        Arrays for rho mixing          83.01 Mb     (  680000,    8)

     Initial potential from superposition of free atoms
     Check: negative starting charge=   -0.000121

     starting charge   87.99945, renormalised to   88.00000

     negative rho (up, down):  1.212E-04 0.000E+00
     Starting wfc are   77 randomized atomic wfcs
     Checking if some PAW data can be deallocated... 

     total cpu time spent up to now is      446.1 secs

     per-process dynamical memory:   790.7 Mb

     Self-consistent Calculation

     iteration #  1     ecut=    90.00 Ry     beta=0.40
     Davidson diagonalization with overlap
     ethr =  1.00E-02,  avg # of iterations =  2.0

     negative rho (up, down):  1.806E-04 0.000E+00

     total cpu time spent up to now is     1477.5 secs

     total energy              =    -412.01507105 Ry
     Harris-Foulkes estimate   =    -414.00919623 Ry
     estimated scf accuracy    <       4.10381438 Ry

     iteration #  2     ecut=    90.00 Ry     beta=0.40
     Davidson diagonalization with overlap
     ethr =  4.66E-03,  avg # of iterations =  3.0

     negative rho (up, down):  2.382E-04 0.000E+00

     total cpu time spent up to now is     2351.8 secs

     total energy              =    -412.58045614 Ry
     Harris-Foulkes estimate   =    -412.74412304 Ry
     estimated scf accuracy    <       0.45320806 Ry

     iteration #  3     ecut=    90.00 Ry     beta=0.40
     Davidson diagonalization with overlap
     ethr =  5.15E-04,  avg # of iterations =  4.0

     negative rho (up, down):  3.229E-04 0.000E+00

     total cpu time spent up to now is     3149.3 secs

     total energy              =    -412.59196355 Ry
     Harris-Foulkes estimate   =    -412.64501933 Ry
     estimated scf accuracy    <       0.14375391 Ry

     iteration #  4     ecut=    90.00 Ry     beta=0.40
     Davidson diagonalization with overlap
     ethr =  1.63E-04,  avg # of iterations =  4.0

     negative rho (up, down):  4.057E-04 0.000E+00

     total cpu time spent up to now is     3857.6 secs

     total energy              =    -412.59765560 Ry
     Harris-Foulkes estimate   =    -412.60947575 Ry
     estimated scf accuracy    <       0.03178560 Ry

     iteration #  5     ecut=    90.00 Ry     beta=0.40
     Davidson diagonalization with overlap
     ethr =  3.61E-05,  avg # of iterations =  4.0

     negative rho (up, down):  4.127E-04 0.000E+00

     total cpu time spent up to now is     4639.5 secs

     total energy              =    -412.60136481 Ry
     Harris-Foulkes estimate   =    -412.60268065 Ry
     estimated scf accuracy    <       0.00290033 Ry

     iteration #  6     ecut=    90.00 Ry     beta=0.40
     Davidson diagonalization with overlap
     ethr =  3.30E-06,  avg # of iterations =  4.0

     negative rho (up, down):  4.174E-04 0.000E+00

     total cpu time spent up to now is     5565.0 secs

     total energy              =    -412.60201067 Ry
     Harris-Foulkes estimate   =    -412.60217754 Ry
     estimated scf accuracy    <       0.00052713 Ry

     iteration #  7     ecut=    90.00 Ry     beta=0.40
     Davidson diagonalization with overlap
     ethr =  5.99E-07,  avg # of iterations =  4.0

     negative rho (up, down):  4.144E-04 0.000E+00

     total cpu time spent up to now is     6387.4 secs

     total energy              =    -412.60207946 Ry
     Harris-Foulkes estimate   =    -412.60212928 Ry
     estimated scf accuracy    <       0.00013158 Ry

     iteration #  8     ecut=    90.00 Ry     beta=0.40
     Davidson diagonalization with overlap
     ethr =  1.50E-07,  avg # of iterations =  3.9

     negative rho (up, down):  4.120E-04 0.000E+00

     total cpu time spent up to now is     7227.9 secs

     total energy              =    -412.60210396 Ry
     Harris-Foulkes estimate   =    -412.60210586 Ry
     estimated scf accuracy    <       0.00001423 Ry

     iteration #  9     ecut=    90.00 Ry     beta=0.40
     Davidson diagonalization with overlap
     ethr =  1.62E-08,  avg # of iterations =  3.0

     negative rho (up, down):  4.110E-04 0.000E+00

     total cpu time spent up to now is     8068.7 secs

     total energy              =    -412.60210607 Ry
     Harris-Foulkes estimate   =    -412.60210644 Ry
     estimated scf accuracy    <       0.00000273 Ry

     iteration # 10     ecut=    90.00 Ry     beta=0.40
     Davidson diagonalization with overlap
     ethr =  3.10E-09,  avg # of iterations =  3.9

     negative rho (up, down):  4.103E-04 0.000E+00

     total cpu time spent up to now is     8927.4 secs

     total energy              =    -412.60210667 Ry
     Harris-Foulkes estimate   =    -412.60210669 Ry
     estimated scf accuracy    <       0.00000049 Ry

     iteration # 11     ecut=    90.00 Ry     beta=0.40
     Davidson diagonalization with overlap
     ethr =  5.58E-10,  avg # of iterations =  3.0

     negative rho (up, down):  4.104E-04 0.000E+00

     total cpu time spent up to now is     9626.0 secs

     End of self-consistent calculation

          k = 0.0000 0.0000 0.0000 (164415 PWs)   bands (ev):

   -25.2596 -24.9024 -24.6297 -24.2069 -21.8838 -21.5774 -21.1505 -18.9965
   -17.2184 -16.7789 -14.8762 -14.7715 -13.7296 -13.2461 -12.6434 -12.5891
   -12.1402 -11.8655 -11.2324 -11.1814 -10.6620 -10.4699 -10.4394  -9.8160
    -9.6453  -9.3289  -9.2131  -9.0880  -8.9485  -8.7112  -8.5002  -8.2078
    -7.8074  -7.7512  -7.6561  -7.4952  -6.6721  -5.5062  -5.2192  -5.1214
    -4.8308  -4.5734  -4.3550  -4.0496

          k = 0.0000 0.0000 0.2000 (164280 PWs)   bands (ev):

   -25.2596 -24.9024 -24.6297 -24.2069 -21.8838 -21.5774 -21.1505 -18.9965
   -17.2184 -16.7789 -14.8762 -14.7715 -13.7296 -13.2461 -12.6434 -12.5891
   -12.1402 -11.8655 -11.2324 -11.1814 -10.6620 -10.4699 -10.4394  -9.8160
    -9.6453  -9.3289  -9.2131  -9.0880  -8.9485  -8.7112  -8.5002  -8.2078
    -7.8074  -7.7512  -7.6562  -7.4952  -6.6721  -5.5062  -5.2192  -5.1214
    -4.8308  -4.5734  -4.3550  -4.0495

          k = 0.0000 0.0000 0.4000 (164440 PWs)   bands (ev):

   -25.2596 -24.9024 -24.6297 -24.2069 -21.8838 -21.5774 -21.1505 -18.9965
   -17.2184 -16.7789 -14.8762 -14.7715 -13.7296 -13.2461 -12.6434 -12.5891
   -12.1402 -11.8655 -11.2324 -11.1814 -10.6620 -10.4699 -10.4394  -9.8160
    -9.6453  -9.3289  -9.2131  -9.0880  -8.9485  -8.7112  -8.5001  -8.2079
    -7.8074  -7.7512  -7.6562  -7.4952  -6.6721  -5.5062  -5.2192  -5.1215
    -4.8308  -4.5735  -4.3550  -4.0494

          k = 0.0000 0.2000 0.2000 (164402 PWs)   bands (ev):

   -25.2596 -24.9024 -24.6297 -24.2069 -21.8838 -21.5774 -21.1505 -18.9965
   -17.2184 -16.7789 -14.8762 -14.7715 -13.7296 -13.2461 -12.6434 -12.5891
   -12.1402 -11.8656 -11.2325 -11.1814 -10.6619 -10.4699 -10.4392  -9.8164
    -9.6452  -9.3293  -9.2129  -9.0880  -8.9485  -8.7111  -8.5000  -8.2074
    -7.8073  -7.7536  -7.6543  -7.4952  -6.6721  -5.5062  -5.2192  -5.1214
    -4.8309  -4.5724  -4.3560  -4.0496

          k = 0.0000 0.2000 0.4000 (164429 PWs)   bands (ev):

   -25.2596 -24.9024 -24.6297 -24.2069 -21.8838 -21.5774 -21.1505 -18.9965
   -17.2184 -16.7789 -14.8762 -14.7715 -13.7296 -13.2461 -12.6434 -12.5891
   -12.1402 -11.8656 -11.2325 -11.1814 -10.6619 -10.4699 -10.4392  -9.8163
    -9.6453  -9.3293  -9.2129  -9.0880  -8.9485  -8.7111  -8.4999  -8.2074
    -7.8073  -7.7536  -7.6543  -7.4952  -6.6721  -5.5062  -5.2192  -5.1214
    -4.8309  -4.5724  -4.3561  -4.0495

          k = 0.0000 0.4000 0.4000 (164430 PWs)   bands (ev):

   -25.2596 -24.9024 -24.6297 -24.2069 -21.8838 -21.5774 -21.1505 -18.9965
   -17.2184 -16.7789 -14.8761 -14.7715 -13.7296 -13.2461 -12.6434 -12.5891
   -12.1402 -11.8656 -11.2326 -11.1813 -10.6619 -10.4698 -10.4389  -9.8169
    -9.6452  -9.3299  -9.2126  -9.0880  -8.9485  -8.7109  -8.4996  -8.2066
    -7.8071  -7.7574  -7.6515  -7.4953  -6.6720  -5.5062  -5.2191  -5.1213
    -4.8310  -4.5707  -4.3577  -4.0496

          k = 0.2000 0.2000 0.2000 (164433 PWs)   bands (ev):

   -25.2596 -24.9024 -24.6297 -24.2069 -21.8838 -21.5774 -21.1505 -18.9965
   -17.2184 -16.7789 -14.8762 -14.7715 -13.7296 -13.2461 -12.6434 -12.5891
   -12.1402 -11.8656 -11.2325 -11.1814 -10.6619 -10.4699 -10.4392  -9.8164
    -9.6452  -9.3293  -9.2129  -9.0880  -8.9485  -8.7111  -8.5000  -8.2074
    -7.8073  -7.7536  -7.6543  -7.4952  -6.6721  -5.5062  -5.2192  -5.1214
    -4.8309  -4.5724  -4.3560  -4.0496

          k = 0.2000 0.2000 0.4000 (164427 PWs)   bands (ev):

   -25.2596 -24.9024 -24.6297 -24.2069 -21.8838 -21.5774 -21.1505 -18.9965
   -17.2184 -16.7789 -14.8762 -14.7715 -13.7296 -13.2461 -12.6434 -12.5891
   -12.1402 -11.8656 -11.2325 -11.1814 -10.6619 -10.4699 -10.4392  -9.8164
    -9.6453  -9.3293  -9.2129  -9.0880  -8.9485  -8.7111  -8.4999  -8.2074
    -7.8073  -7.7536  -7.6543  -7.4952  -6.6721  -5.5062  -5.2192  -5.1214
    -4.8309  -4.5724  -4.3560  -4.0495

          k = 0.2000 0.4000 0.4000 (164474 PWs)   bands (ev):

   -25.2596 -24.9024 -24.6297 -24.2069 -21.8838 -21.5774 -21.1505 -18.9965
   -17.2184 -16.7789 -14.8761 -14.7715 -13.7296 -13.2461 -12.6434 -12.5891
   -12.1402 -11.8656 -11.2326 -11.1813 -10.6619 -10.4698 -10.4389  -9.8169
    -9.6452  -9.3299  -9.2126  -9.0880  -8.9485  -8.7109  -8.4996  -8.2066
    -7.8071  -7.7574  -7.6515  -7.4953  -6.6720  -5.5062  -5.2191  -5.1213
    -4.8310  -4.5707  -4.3577  -4.0496

          k = 0.4000 0.4000 0.4000 (164455 PWs)   bands (ev):

   -25.2596 -24.9024 -24.6297 -24.2069 -21.8838 -21.5774 -21.1505 -18.9965
   -17.2184 -16.7789 -14.8761 -14.7715 -13.7296 -13.2461 -12.6434 -12.5891
   -12.1402 -11.8656 -11.2326 -11.1813 -10.6619 -10.4698 -10.4389  -9.8169
    -9.6452  -9.3299  -9.2126  -9.0880  -8.9485  -8.7109  -8.4996  -8.2066
    -7.8071  -7.7574  -7.6515  -7.4953  -6.6720  -5.5062  -5.2191  -5.1213
    -4.8310  -4.5707  -4.3577  -4.0496

          k = 0.2000 0.0000 0.0000 (164280 PWs)   bands (ev):

   -25.2596 -24.9024 -24.6297 -24.2069 -21.8838 -21.5774 -21.1505 -18.9965
   -17.2184 -16.7789 -14.8762 -14.7715 -13.7296 -13.2461 -12.6434 -12.5891
   -12.1402 -11.8655 -11.2324 -11.1814 -10.6620 -10.4699 -10.4394  -9.8160
    -9.6453  -9.3289  -9.2131  -9.0880  -8.9485  -8.7112  -8.5002  -8.2078
    -7.8074  -7.7512  -7.6561  -7.4952  -6.6721  -5.5063  -5.2192  -5.1214
    -4.8308  -4.5734  -4.3550  -4.0496

          k = 0.0000 0.2000 0.0000 (164280 PWs)   bands (ev):

   -25.2596 -24.9024 -24.6297 -24.2069 -21.8838 -21.5774 -21.1505 -18.9965
   -17.2184 -16.7789 -14.8762 -14.7715 -13.7296 -13.2461 -12.6434 -12.5891
   -12.1402 -11.8656 -11.2325 -11.1814 -10.6619 -10.4699 -10.4392  -9.8164
    -9.6452  -9.3293  -9.2129  -9.0880  -8.9485  -8.7111  -8.5000  -8.2074
    -7.8073  -7.7536  -7.6543  -7.4953  -6.6721  -5.5062  -5.2191  -5.1213
    -4.8309  -4.5724  -4.3560  -4.0496

          k = 0.4000 0.0000 0.0000 (164440 PWs)   bands (ev):

   -25.2596 -24.9024 -24.6297 -24.2069 -21.8838 -21.5774 -21.1505 -18.9965
   -17.2184 -16.7789 -14.8762 -14.7715 -13.7296 -13.2461 -12.6434 -12.5891
   -12.1402 -11.8655 -11.2324 -11.1814 -10.6620 -10.4699 -10.4394  -9.8160
    -9.6453  -9.3289  -9.2131  -9.0880  -8.9485  -8.7112  -8.5002  -8.2078
    -7.8074  -7.7512  -7.6561  -7.4952  -6.6721  -5.5063  -5.2192  -5.1214
    -4.8308  -4.5734  -4.3550  -4.0496

          k = 0.0000 0.4000 0.0000 (164440 PWs)   bands (ev):

   -25.2596 -24.9024 -24.6297 -24.2069 -21.8838 -21.5774 -21.1505 -18.9965
   -17.2184 -16.7789 -14.8761 -14.7715 -13.7296 -13.2461 -12.6434 -12.5891
   -12.1402 -11.8656 -11.2326 -11.1813 -10.6619 -10.4698 -10.4389  -9.8169
    -9.6452  -9.3299  -9.2126  -9.0880  -8.9485  -8.7109  -8.4997  -8.2066
    -7.8071  -7.7574  -7.6515  -7.4953  -6.6721  -5.5062  -5.2191  -5.1213
    -4.8310  -4.5707  -4.3577  -4.0497

          k = 0.0000-0.2000 0.2000 (164402 PWs)   bands (ev):

   -25.2596 -24.9024 -24.6297 -24.2069 -21.8838 -21.5774 -21.1505 -18.9965
   -17.2184 -16.7789 -14.8762 -14.7715 -13.7296 -13.2461 -12.6434 -12.5891
   -12.1402 -11.8656 -11.2325 -11.1814 -10.6619 -10.4699 -10.4392  -9.8164
    -9.6452  -9.3293  -9.2129  -9.0880  -8.9485  -8.7111  -8.5000  -8.2074
    -7.8073  -7.7536  -7.6543  -7.4953  -6.6721  -5.5062  -5.2192  -5.1214
    -4.8309  -4.5724  -4.3560  -4.0496

          k = 0.2000 0.0000-0.2000 (164402 PWs)   bands (ev):

   -25.2596 -24.9024 -24.6297 -24.2069 -21.8838 -21.5774 -21.1505 -18.9965
   -17.2184 -16.7789 -14.8762 -14.7715 -13.7296 -13.2461 -12.6434 -12.5891
   -12.1402 -11.8655 -11.2324 -11.1814 -10.6620 -10.4699 -10.4394  -9.8160
    -9.6453  -9.3289  -9.2131  -9.0880  -8.9485  -8.7112  -8.5002  -8.2079
    -7.8074  -7.7512  -7.6561  -7.4952  -6.6721  -5.5062  -5.2192  -5.1214
    -4.8308  -4.5734  -4.3550  -4.0495

          k =-0.2000 0.0000-0.2000 (164402 PWs)   bands (ev):

   -25.2596 -24.9024 -24.6297 -24.2069 -21.8838 -21.5774 -21.1505 -18.9965
   -17.2184 -16.7789 -14.8762 -14.7715 -13.7296 -13.2461 -12.6434 -12.5891
   -12.1402 -11.8655 -11.2324 -11.1814 -10.6620 -10.4699 -10.4394  -9.8160
    -9.6453  -9.3289  -9.2131  -9.0880  -8.9485  -8.7112  -8.5002  -8.2079
    -7.8074  -7.7512  -7.6561  -7.4952  -6.6721  -5.5062  -5.2192  -5.1214
    -4.8308  -4.5734  -4.3550  -4.0495

          k = 0.2000-0.2000 0.0000 (164402 PWs)   bands (ev):

   -25.2596 -24.9024 -24.6297 -24.2069 -21.8838 -21.5774 -21.1505 -18.9965
   -17.2184 -16.7789 -14.8762 -14.7715 -13.7296 -13.2461 -12.6434 -12.5891
   -12.1402 -11.8656 -11.2325 -11.1814 -10.6619 -10.4699 -10.4392  -9.8164
    -9.6452  -9.3293  -9.2129  -9.0880  -8.9485  -8.7111  -8.5000  -8.2074
    -7.8073  -7.7536  -7.6543  -7.4952  -6.6721  -5.5062  -5.2192  -5.1213
    -4.8308  -4.5724  -4.3560  -4.0496

          k =-0.2000-0.2000 0.0000 (164402 PWs)   bands (ev):

   -25.2596 -24.9024 -24.6297 -24.2069 -21.8838 -21.5774 -21.1505 -18.9965
   -17.2184 -16.7789 -14.8762 -14.7715 -13.7296 -13.2461 -12.6434 -12.5891
   -12.1402 -11.8656 -11.2325 -11.1814 -10.6619 -10.4699 -10.4392  -9.8164
    -9.6452  -9.3293  -9.2129  -9.0880  -8.9485  -8.7111  -8.5000  -8.2074
    -7.8073  -7.7536  -7.6543  -7.4952  -6.6721  -5.5062  -5.2192  -5.1213
    -4.8308  -4.5724  -4.3560  -4.0496

          k = 0.0000-0.2000 0.4000 (164429 PWs)   bands (ev):

   -25.2596 -24.9024 -24.6297 -24.2069 -21.8838 -21.5774 -21.1505 -18.9965
   -17.2184 -16.7789 -14.8762 -14.7715 -13.7296 -13.2461 -12.6434 -12.5891
   -12.1402 -11.8656 -11.2325 -11.1814 -10.6619 -10.4699 -10.4392  -9.8164
    -9.6452  -9.3293  -9.2129  -9.0880  -8.9485  -8.7111  -8.5000  -8.2074
    -7.8073  -7.7536  -7.6543  -7.4952  -6.6721  -5.5062  -5.2192  -5.1214
    -4.8309  -4.5724  -4.3561  -4.0495

          k = 0.2000 0.0000-0.4000 (164429 PWs)   bands (ev):

   -25.2596 -24.9024 -24.6297 -24.2069 -21.8838 -21.5774 -21.1505 -18.9965
   -17.2184 -16.7789 -14.8762 -14.7715 -13.7296 -13.2461 -12.6434 -12.5891
   -12.1402 -11.8655 -11.2324 -11.1814 -10.6620 -10.4699 -10.4394  -9.8160
    -9.6453  -9.3289  -9.2131  -9.0880  -8.9485  -8.7112  -8.5001  -8.2079
    -7.8074  -7.7512  -7.6562  -7.4952  -6.6721  -5.5062  -5.2192  -5.1215
    -4.8308  -4.5734  -4.3550  -4.0494

          k =-0.2000 0.0000-0.4000 (164429 PWs)   bands (ev):

   -25.2596 -24.9024 -24.6297 -24.2069 -21.8838 -21.5774 -21.1505 -18.9965
   -17.2184 -16.7789 -14.8762 -14.7715 -13.7296 -13.2461 -12.6434 -12.5891
   -12.1402 -11.8655 -11.2324 -11.1814 -10.6620 -10.4699 -10.4394  -9.8160
    -9.6453  -9.3289  -9.2131  -9.0880  -8.9485  -8.7112  -8.5001  -8.2079
    -7.8074  -7.7512  -7.6562  -7.4952  -6.6721  -5.5062  -5.2192  -5.1215
    -4.8308  -4.5734  -4.3550  -4.0494

          k = 0.4000-0.2000 0.0000 (164429 PWs)   bands (ev):

   -25.2596 -24.9024 -24.6297 -24.2069 -21.8838 -21.5774 -21.1505 -18.9965
   -17.2184 -16.7789 -14.8762 -14.7715 -13.7296 -13.2461 -12.6434 -12.5891
   -12.1402 -11.8656 -11.2325 -11.1814 -10.6619 -10.4699 -10.4392  -9.8164
    -9.6452  -9.3293  -9.2129  -9.0880  -8.9485  -8.7111  -8.5000  -8.2074
    -7.8073  -7.7536  -7.6543  -7.4952  -6.6721  -5.5063  -5.2192  -5.1213
    -4.8308  -4.5724  -4.3560  -4.0497

          k =-0.4000-0.2000 0.0000 (164429 PWs)   bands (ev):

   -25.2596 -24.9024 -24.6297 -24.2069 -21.8838 -21.5774 -21.1505 -18.9965
   -17.2184 -16.7789 -14.8762 -14.7715 -13.7296 -13.2461 -12.6434 -12.5891
   -12.1402 -11.8656 -11.2325 -11.1814 -10.6619 -10.4699 -10.4392  -9.8164
    -9.6452  -9.3293  -9.2129  -9.0880  -8.9485  -8.7111  -8.5000  -8.2074
    -7.8073  -7.7536  -7.6543  -7.4952  -6.6721  -5.5063  -5.2192  -5.1213
    -4.8308  -4.5724  -4.3560  -4.0497

          k = 0.0000 0.4000 0.2000 (164429 PWs)   bands (ev):

   -25.2596 -24.9024 -24.6297 -24.2069 -21.8838 -21.5774 -21.1505 -18.9965
   -17.2184 -16.7789 -14.8761 -14.7715 -13.7296 -13.2461 -12.6434 -12.5891
   -12.1402 -11.8656 -11.2326 -11.1813 -10.6619 -10.4698 -10.4389  -9.8169
    -9.6452  -9.3299  -9.2126  -9.0880  -8.9485  -8.7109  -8.4997  -8.2066
    -7.8071  -7.7574  -7.6515  -7.4953  -6.6721  -5.5062  -5.2191  -5.1213
    -4.8310  -4.5707  -4.3577  -4.0497

          k = 0.0000 0.4000-0.2000 (164429 PWs)   bands (ev):

   -25.2596 -24.9024 -24.6297 -24.2069 -21.8838 -21.5774 -21.1505 -18.9965
   -17.2184 -16.7789 -14.8761 -14.7715 -13.7296 -13.2461 -12.6434 -12.5891
   -12.1402 -11.8656 -11.2326 -11.1813 -10.6619 -10.4698 -10.4389  -9.8169
    -9.6452  -9.3299  -9.2126  -9.0880  -8.9485  -8.7109  -8.4997  -8.2066
    -7.8071  -7.7574  -7.6515  -7.4953  -6.6721  -5.5062  -5.2191  -5.1213
    -4.8310  -4.5707  -4.3577  -4.0497

          k = 0.2000 0.4000 0.0000 (164429 PWs)   bands (ev):

   -25.2596 -24.9024 -24.6297 -24.2069 -21.8838 -21.5774 -21.1505 -18.9965
   -17.2184 -16.7789 -14.8761 -14.7715 -13.7296 -13.2461 -12.6434 -12.5891
   -12.1402 -11.8656 -11.2326 -11.1813 -10.6619 -10.4698 -10.4389  -9.8169
    -9.6452  -9.3299  -9.2126  -9.0880  -8.9485  -8.7109  -8.4997  -8.2066
    -7.8071  -7.7574  -7.6515  -7.4953  -6.6721  -5.5062  -5.2191  -5.1213
    -4.8310  -4.5707  -4.3577  -4.0497

          k =-0.2000 0.4000 0.0000 (164429 PWs)   bands (ev):

   -25.2596 -24.9024 -24.6297 -24.2069 -21.8838 -21.5774 -21.1505 -18.9965
   -17.2184 -16.7789 -14.8761 -14.7715 -13.7296 -13.2461 -12.6434 -12.5891
   -12.1402 -11.8656 -11.2326 -11.1813 -10.6619 -10.4698 -10.4389  -9.8169
    -9.6452  -9.3299  -9.2126  -9.0880  -8.9485  -8.7109  -8.4997  -8.2066
    -7.8071  -7.7574  -7.6515  -7.4953  -6.6721  -5.5062  -5.2191  -5.1213
    -4.8310  -4.5707  -4.3577  -4.0497

          k = 0.4000 0.0000 0.2000 (164429 PWs)   bands (ev):

   -25.2596 -24.9024 -24.6297 -24.2069 -21.8838 -21.5774 -21.1505 -18.9965
   -17.2184 -16.7789 -14.8762 -14.7715 -13.7296 -13.2461 -12.6434 -12.5891
   -12.1402 -11.8655 -11.2324 -11.1814 -10.6620 -10.4699 -10.4394  -9.8160
    -9.6453  -9.3289  -9.2131  -9.0880  -8.9485  -8.7112  -8.5002  -8.2079
    -7.8074  -7.7512  -7.6561  -7.4952  -6.6721  -5.5062  -5.2192  -5.1214
    -4.8308  -4.5734  -4.3550  -4.0495

          k = 0.4000 0.0000-0.2000 (164429 PWs)   bands (ev):

   -25.2596 -24.9024 -24.6297 -24.2069 -21.8838 -21.5774 -21.1505 -18.9965
   -17.2184 -16.7789 -14.8762 -14.7715 -13.7296 -13.2461 -12.6434 -12.5891
   -12.1402 -11.8655 -11.2324 -11.1814 -10.6620 -10.4699 -10.4394  -9.8160
    -9.6453  -9.3289  -9.2131  -9.0880  -8.9485  -8.7112  -8.5002  -8.2079
    -7.8074  -7.7512  -7.6561  -7.4952  -6.6721  -5.5062  -5.2192  -5.1214
    -4.8308  -4.5734  -4.3550  -4.0495

          k = 0.0000-0.4000 0.4000 (164430 PWs)   bands (ev):

   -25.2596 -24.9024 -24.6297 -24.2069 -21.8838 -21.5774 -21.1505 -18.9965
   -17.2184 -16.7789 -14.8761 -14.7715 -13.7296 -13.2461 -12.6434 -12.5891
   -12.1402 -11.8656 -11.2326 -11.1813 -10.6619 -10.4698 -10.4389  -9.8169
    -9.6452  -9.3299  -9.2126  -9.0880  -8.9485  -8.7109  -8.4996  -8.2066
    -7.8071  -7.7574  -7.6515  -7.4953  -6.6720  -5.5062  -5.2191  -5.1213
    -4.8310  -4.5707  -4.3577  -4.0496

          k = 0.4000 0.0000-0.4000 (164430 PWs)   bands (ev):

   -25.2596 -24.9024 -24.6297 -24.2069 -21.8838 -21.5774 -21.1505 -18.9965
   -17.2184 -16.7789 -14.8762 -14.7715 -13.7296 -13.2461 -12.6434 -12.5891
   -12.1402 -11.8655 -11.2324 -11.1814 -10.6620 -10.4699 -10.4394  -9.8160
    -9.6453  -9.3289  -9.2131  -9.0880  -8.9485  -8.7112  -8.5001  -8.2079
    -7.8074  -7.7512  -7.6562  -7.4952  -6.6721  -5.5062  -5.2192  -5.1215
    -4.8308  -4.5734  -4.3550  -4.0494

          k =-0.4000 0.0000-0.4000 (164430 PWs)   bands (ev):

   -25.2596 -24.9024 -24.6297 -24.2069 -21.8838 -21.5774 -21.1505 -18.9965
   -17.2184 -16.7789 -14.8762 -14.7715 -13.7296 -13.2461 -12.6434 -12.5891
   -12.1402 -11.8655 -11.2324 -11.1814 -10.6620 -10.4699 -10.4394  -9.8160
    -9.6453  -9.3289  -9.2131  -9.0880  -8.9485  -8.7112  -8.5001  -8.2079
    -7.8074  -7.7512  -7.6562  -7.4952  -6.6721  -5.5062  -5.2192  -5.1215
    -4.8308  -4.5734  -4.3550  -4.0494

          k = 0.4000-0.4000 0.0000 (164430 PWs)   bands (ev):

   -25.2596 -24.9024 -24.6297 -24.2069 -21.8838 -21.5774 -21.1505 -18.9965
   -17.2184 -16.7789 -14.8761 -14.7715 -13.7296 -13.2461 -12.6434 -12.5891
   -12.1402 -11.8656 -11.2326 -11.1813 -10.6619 -10.4698 -10.4389  -9.8169
    -9.6452  -9.3299  -9.2126  -9.0880  -8.9485  -8.7109  -8.4997  -8.2066
    -7.8071  -7.7574  -7.6515  -7.4953  -6.6721  -5.5062  -5.2191  -5.1213
    -4.8310  -4.5707  -4.3577  -4.0498

          k =-0.4000-0.4000 0.0000 (164430 PWs)   bands (ev):

   -25.2596 -24.9024 -24.6297 -24.2069 -21.8838 -21.5774 -21.1505 -18.9965
   -17.2184 -16.7789 -14.8761 -14.7715 -13.7296 -13.2461 -12.6434 -12.5891
   -12.1402 -11.8656 -11.2326 -11.1813 -10.6619 -10.4698 -10.4389  -9.8169
    -9.6452  -9.3299  -9.2126  -9.0880  -8.9485  -8.7109  -8.4997  -8.2066
    -7.8071  -7.7574  -7.6515  -7.4953  -6.6721  -5.5062  -5.2191  -5.1213
    -4.8310  -4.5707  -4.3577  -4.0498

          k =-0.2000-0.2000 0.2000 (164433 PWs)   bands (ev):

   -25.2596 -24.9024 -24.6297 -24.2069 -21.8838 -21.5774 -21.1505 -18.9965
   -17.2184 -16.7789 -14.8762 -14.7715 -13.7296 -13.2461 -12.6434 -12.5891
   -12.1402 -11.8656 -11.2325 -11.1814 -10.6619 -10.4699 -10.4392  -9.8164
    -9.6452  -9.3293  -9.2129  -9.0880  -8.9485  -8.7111  -8.5000  -8.2074
    -7.8073  -7.7536  -7.6543  -7.4952  -6.6721  -5.5062  -5.2192  -5.1214
    -4.8309  -4.5724  -4.3560  -4.0496

          k =-0.2000 0.2000-0.2000 (164433 PWs)   bands (ev):

   -25.2596 -24.9024 -24.6297 -24.2069 -21.8838 -21.5774 -21.1505 -18.9965
   -17.2184 -16.7789 -14.8762 -14.7715 -13.7296 -13.2461 -12.6434 -12.5891
   -12.1402 -11.8656 -11.2325 -11.1814 -10.6619 -10.4699 -10.4392  -9.8164
    -9.6452  -9.3293  -9.2129  -9.0880  -8.9485  -8.7111  -8.5000  -8.2074
    -7.8073  -7.7536  -7.6543  -7.4952  -6.6721  -5.5062  -5.2192  -5.1214
    -4.8309  -4.5724  -4.3560  -4.0496

          k = 0.2000-0.2000-0.2000 (164433 PWs)   bands (ev):

   -25.2596 -24.9024 -24.6297 -24.2069 -21.8838 -21.5774 -21.1505 -18.9965
   -17.2184 -16.7789 -14.8762 -14.7715 -13.7296 -13.2461 -12.6434 -12.5891
   -12.1402 -11.8656 -11.2325 -11.1814 -10.6619 -10.4699 -10.4392  -9.8164
    -9.6452  -9.3293  -9.2129  -9.0880  -8.9485  -8.7111  -8.5000  -8.2074
    -7.8073  -7.7536  -7.6543  -7.4952  -6.6721  -5.5062  -5.2192  -5.1214
    -4.8309  -4.5724  -4.3560  -4.0496

          k =-0.2000-0.2000 0.4000 (164427 PWs)   bands (ev):

   -25.2596 -24.9024 -24.6297 -24.2069 -21.8838 -21.5774 -21.1505 -18.9965
   -17.2184 -16.7789 -14.8762 -14.7715 -13.7296 -13.2461 -12.6434 -12.5891
   -12.1402 -11.8656 -11.2325 -11.1814 -10.6619 -10.4699 -10.4392  -9.8164
    -9.6452  -9.3293  -9.2129  -9.0880  -8.9485  -8.7111  -8.5000  -8.2074
    -7.8073  -7.7536  -7.6543  -7.4952  -6.6721  -5.5062  -5.2192  -5.1214
    -4.8309  -4.5724  -4.3561  -4.0495

          k =-0.2000 0.2000-0.4000 (164427 PWs)   bands (ev):

   -25.2596 -24.9024 -24.6297 -24.2069 -21.8838 -21.5774 -21.1505 -18.9965
   -17.2184 -16.7789 -14.8762 -14.7715 -13.7296 -13.2461 -12.6434 -12.5891
   -12.1402 -11.8656 -11.2325 -11.1814 -10.6619 -10.4699 -10.4392  -9.8164
    -9.6452  -9.3293  -9.2129  -9.0880  -8.9485  -8.7111  -8.5000  -8.2074
    -7.8073  -7.7536  -7.6543  -7.4952  -6.6721  -5.5062  -5.2192  -5.1214
    -4.8309  -4.5724  -4.3560  -4.0495

          k = 0.2000-0.2000-0.4000 (164427 PWs)   bands (ev):

   -25.2596 -24.9024 -24.6297 -24.2069 -21.8838 -21.5774 -21.1505 -18.9965
   -17.2184 -16.7789 -14.8762 -14.7715 -13.7296 -13.2461 -12.6434 -12.5891
   -12.1402 -11.8656 -11.2325 -11.1814 -10.6619 -10.4699 -10.4392  -9.8164
    -9.6453  -9.3293  -9.2129  -9.0880  -8.9485  -8.7111  -8.4999  -8.2074
    -7.8073  -7.7536  -7.6543  -7.4952  -6.6721  -5.5062  -5.2192  -5.1214
    -4.8309  -4.5724  -4.3560  -4.0495

          k = 0.4000-0.2000 0.2000 (164427 PWs)   bands (ev):

   -25.2596 -24.9024 -24.6297 -24.2069 -21.8838 -21.5774 -21.1505 -18.9965
   -17.2184 -16.7789 -14.8762 -14.7715 -13.7296 -13.2461 -12.6434 -12.5891
   -12.1402 -11.8656 -11.2325 -11.1814 -10.6619 -10.4699 -10.4392  -9.8164
    -9.6452  -9.3293  -9.2129  -9.0880  -8.9485  -8.7111  -8.5000  -8.2074
    -7.8073  -7.7536  -7.6543  -7.4952  -6.6721  -5.5062  -5.2192  -5.1214
    -4.8309  -4.5724  -4.3560  -4.0496

          k =-0.4000-0.2000-0.2000 (164427 PWs)   bands (ev):

   -25.2596 -24.9024 -24.6297 -24.2069 -21.8838 -21.5774 -21.1505 -18.9965
   -17.2184 -16.7789 -14.8762 -14.7715 -13.7296 -13.2461 -12.6434 -12.5891
   -12.1402 -11.8656 -11.2325 -11.1814 -10.6619 -10.4699 -10.4392  -9.8164
    -9.6452  -9.3293  -9.2129  -9.0880  -8.9485  -8.7111  -8.5000  -8.2074
    -7.8073  -7.7536  -7.6543  -7.4952  -6.6721  -5.5062  -5.2192  -5.1214
    -4.8308  -4.5724  -4.3560  -4.0496

          k = 0.4000 0.2000-0.2000 (164427 PWs)   bands (ev):

   -25.2596 -24.9024 -24.6297 -24.2069 -21.8838 -21.5774 -21.1505 -18.9965
   -17.2184 -16.7789 -14.8762 -14.7715 -13.7296 -13.2461 -12.6434 -12.5891
   -12.1402 -11.8656 -11.2325 -11.1814 -10.6619 -10.4699 -10.4392  -9.8164
    -9.6452  -9.3293  -9.2129  -9.0880  -8.9485  -8.7111  -8.5000  -8.2074
    -7.8073  -7.7536  -7.6543  -7.4952  -6.6721  -5.5062  -5.2192  -5.1214
    -4.8309  -4.5724  -4.3560  -4.0496

          k =-0.4000 0.2000 0.2000 (164427 PWs)   bands (ev):

   -25.2596 -24.9024 -24.6297 -24.2069 -21.8838 -21.5774 -21.1505 -18.9965
   -17.2184 -16.7789 -14.8762 -14.7715 -13.7296 -13.2461 -12.6434 -12.5891
   -12.1402 -11.8656 -11.2325 -11.1814 -10.6619 -10.4699 -10.4392  -9.8164
    -9.6452  -9.3293  -9.2129  -9.0880  -8.9485  -8.7111  -8.5000  -8.2074
    -7.8073  -7.7536  -7.6543  -7.4952  -6.6721  -5.5062  -5.2192  -5.1214
    -4.8308  -4.5724  -4.3560  -4.0496

          k =-0.2000 0.4000 0.2000 (164427 PWs)   bands (ev):

   -25.2596 -24.9024 -24.6297 -24.2069 -21.8838 -21.5774 -21.1505 -18.9965
   -17.2184 -16.7789 -14.8761 -14.7715 -13.7296 -13.2461 -12.6434 -12.5891
   -12.1402 -11.8656 -11.2326 -11.1813 -10.6619 -10.4698 -10.4389  -9.8169
    -9.6452  -9.3299  -9.2126  -9.0880  -8.9485  -8.7109  -8.4997  -8.2066
    -7.8071  -7.7574  -7.6515  -7.4953  -6.6721  -5.5062  -5.2191  -5.1213
    -4.8310  -4.5707  -4.3577  -4.0497

          k =-0.2000-0.4000-0.2000 (164427 PWs)   bands (ev):

   -25.2596 -24.9024 -24.6297 -24.2069 -21.8838 -21.5774 -21.1505 -18.9965
   -17.2184 -16.7789 -14.8761 -14.7715 -13.7296 -13.2461 -12.6434 -12.5891
   -12.1402 -11.8656 -11.2326 -11.1813 -10.6619 -10.4698 -10.4389  -9.8169
    -9.6452  -9.3299  -9.2126  -9.0880  -8.9485  -8.7109  -8.4997  -8.2066
    -7.8071  -7.7574  -7.6515  -7.4953  -6.6721  -5.5062  -5.2191  -5.1213
    -4.8310  -4.5707  -4.3577  -4.0497

          k = 0.2000 0.4000-0.2000 (164427 PWs)   bands (ev):

   -25.2596 -24.9024 -24.6297 -24.2069 -21.8838 -21.5774 -21.1505 -18.9965
   -17.2184 -16.7789 -14.8761 -14.7715 -13.7296 -13.2461 -12.6434 -12.5891
   -12.1402 -11.8656 -11.2326 -11.1813 -10.6619 -10.4698 -10.4389  -9.8169
    -9.6452  -9.3299  -9.2126  -9.0880  -8.9485  -8.7109  -8.4997  -8.2066
    -7.8071  -7.7574  -7.6515  -7.4953  -6.6721  -5.5062  -5.2191  -5.1213
    -4.8310  -4.5707  -4.3577  -4.0497

          k = 0.2000-0.4000 0.2000 (164427 PWs)   bands (ev):

   -25.2596 -24.9024 -24.6297 -24.2069 -21.8838 -21.5774 -21.1505 -18.9965
   -17.2184 -16.7789 -14.8761 -14.7715 -13.7296 -13.2461 -12.6434 -12.5891
   -12.1402 -11.8656 -11.2326 -11.1813 -10.6619 -10.4698 -10.4389  -9.8169
    -9.6452  -9.3299  -9.2126  -9.0880  -8.9485  -8.7109  -8.4997  -8.2066
    -7.8071  -7.7574  -7.6515  -7.4953  -6.6721  -5.5062  -5.2191  -5.1213
    -4.8310  -4.5707  -4.3577  -4.0497

          k =-0.2000-0.4000 0.4000 (164474 PWs)   bands (ev):

   -25.2596 -24.9024 -24.6297 -24.2069 -21.8838 -21.5774 -21.1505 -18.9965
   -17.2184 -16.7789 -14.8761 -14.7715 -13.7296 -13.2461 -12.6434 -12.5891
   -12.1402 -11.8656 -11.2326 -11.1813 -10.6619 -10.4698 -10.4389  -9.8169
    -9.6452  -9.3299  -9.2126  -9.0880  -8.9485  -8.7109  -8.4996  -8.2066
    -7.8071  -7.7574  -7.6515  -7.4953  -6.6720  -5.5062  -5.2191  -5.1213
    -4.8310  -4.5707  -4.3577  -4.0496

          k =-0.2000 0.4000-0.4000 (164474 PWs)   bands (ev):

   -25.2596 -24.9024 -24.6297 -24.2069 -21.8838 -21.5774 -21.1505 -18.9965
   -17.2184 -16.7789 -14.8761 -14.7715 -13.7296 -13.2461 -12.6434 -12.5891
   -12.1402 -11.8656 -11.2326 -11.1813 -10.6619 -10.4698 -10.4389  -9.8169
    -9.6452  -9.3299  -9.2126  -9.0880  -8.9485  -8.7109  -8.4996  -8.2066
    -7.8071  -7.7574  -7.6515  -7.4953  -6.6720  -5.5062  -5.2191  -5.1213
    -4.8310  -4.5707  -4.3577  -4.0496

          k = 0.2000-0.4000-0.4000 (164474 PWs)   bands (ev):

   -25.2596 -24.9024 -24.6297 -24.2069 -21.8838 -21.5774 -21.1505 -18.9965
   -17.2184 -16.7789 -14.8761 -14.7715 -13.7296 -13.2461 -12.6434 -12.5891
   -12.1402 -11.8656 -11.2326 -11.1813 -10.6619 -10.4698 -10.4389  -9.8169
    -9.6452  -9.3299  -9.2126  -9.0880  -8.9485  -8.7109  -8.4996  -8.2066
    -7.8071  -7.7574  -7.6515  -7.4953  -6.6720  -5.5062  -5.2191  -5.1213
    -4.8310  -4.5707  -4.3577  -4.0496

          k = 0.4000 0.2000-0.4000 (164474 PWs)   bands (ev):

   -25.2596 -24.9024 -24.6297 -24.2069 -21.8838 -21.5774 -21.1505 -18.9965
   -17.2184 -16.7789 -14.8762 -14.7715 -13.7296 -13.2461 -12.6434 -12.5891
   -12.1402 -11.8656 -11.2325 -11.1814 -10.6619 -10.4699 -10.4392  -9.8164
    -9.6452  -9.3293  -9.2129  -9.0880  -8.9485  -8.7111  -8.5000  -8.2074
    -7.8073  -7.7536  -7.6543  -7.4952  -6.6721  -5.5062  -5.2192  -5.1214
    -4.8309  -4.5724  -4.3560  -4.0495

          k =-0.4000-0.2000-0.4000 (164474 PWs)   bands (ev):

   -25.2596 -24.9024 -24.6297 -24.2069 -21.8838 -21.5774 -21.1505 -18.9965
   -17.2184 -16.7789 -14.8762 -14.7715 -13.7296 -13.2461 -12.6434 -12.5891
   -12.1402 -11.8656 -11.2325 -11.1814 -10.6619 -10.4699 -10.4392  -9.8164
    -9.6453  -9.3293  -9.2129  -9.0880  -8.9485  -8.7111  -8.4999  -8.2074
    -7.8073  -7.7536  -7.6543  -7.4952  -6.6721  -5.5062  -5.2192  -5.1214
    -4.8309  -4.5724  -4.3560  -4.0495

          k = 0.4000-0.2000 0.4000 (164474 PWs)   bands (ev):

   -25.2596 -24.9024 -24.6297 -24.2069 -21.8838 -21.5774 -21.1505 -18.9965
   -17.2184 -16.7789 -14.8762 -14.7715 -13.7296 -13.2461 -12.6434 -12.5891
   -12.1402 -11.8656 -11.2325 -11.1814 -10.6619 -10.4699 -10.4392  -9.8164
    -9.6452  -9.3293  -9.2129  -9.0880  -8.9485  -8.7111  -8.5000  -8.2074
    -7.8073  -7.7536  -7.6543  -7.4952  -6.6721  -5.5062  -5.2192  -5.1214
    -4.8309  -4.5724  -4.3560  -4.0495

          k =-0.4000 0.2000 0.4000 (164474 PWs)   bands (ev):

   -25.2596 -24.9024 -24.6297 -24.2069 -21.8838 -21.5774 -21.1505 -18.9965
   -17.2184 -16.7789 -14.8762 -14.7715 -13.7296 -13.2461 -12.6434 -12.5891
   -12.1402 -11.8656 -11.2325 -11.1814 -10.6619 -10.4699 -10.4392  -9.8164
    -9.6453  -9.3293  -9.2129  -9.0880  -8.9485  -8.7111  -8.4999  -8.2074
    -7.8073  -7.7536  -7.6543  -7.4952  -6.6721  -5.5062  -5.2192  -5.1214
    -4.8309  -4.5724  -4.3560  -4.0495

          k = 0.4000-0.4000 0.2000 (164474 PWs)   bands (ev):

   -25.2596 -24.9024 -24.6297 -24.2069 -21.8838 -21.5774 -21.1505 -18.9965
   -17.2184 -16.7789 -14.8761 -14.7715 -13.7296 -13.2461 -12.6434 -12.5891
   -12.1402 -11.8656 -11.2326 -11.1813 -10.6619 -10.4698 -10.4389  -9.8169
    -9.6452  -9.3299  -9.2126  -9.0880  -8.9485  -8.7109  -8.4997  -8.2066
    -7.8071  -7.7574  -7.6515  -7.4953  -6.6721  -5.5062  -5.2191  -5.1213
    -4.8310  -4.5707  -4.3577  -4.0497

          k =-0.4000-0.4000-0.2000 (164474 PWs)   bands (ev):

   -25.2596 -24.9024 -24.6297 -24.2069 -21.8838 -21.5774 -21.1505 -18.9965
   -17.2184 -16.7789 -14.8761 -14.7715 -13.7296 -13.2461 -12.6434 -12.5891
   -12.1402 -11.8656 -11.2326 -11.1813 -10.6619 -10.4698 -10.4389  -9.8169
    -9.6452  -9.3299  -9.2126  -9.0880  -8.9485  -8.7109  -8.4997  -8.2066
    -7.8071  -7.7574  -7.6515  -7.4953  -6.6721  -5.5062  -5.2191  -5.1213
    -4.8310  -4.5707  -4.3577  -4.0497

          k = 0.4000 0.4000-0.2000 (164474 PWs)   bands (ev):

   -25.2596 -24.9024 -24.6297 -24.2069 -21.8838 -21.5774 -21.1505 -18.9965
   -17.2184 -16.7789 -14.8761 -14.7715 -13.7296 -13.2461 -12.6434 -12.5891
   -12.1402 -11.8656 -11.2326 -11.1813 -10.6619 -10.4698 -10.4389  -9.8169
    -9.6452  -9.3299  -9.2126  -9.0880  -8.9485  -8.7109  -8.4997  -8.2066
    -7.8071  -7.7574  -7.6515  -7.4953  -6.6721  -5.5062  -5.2191  -5.1213
    -4.8310  -4.5707  -4.3577  -4.0497

          k =-0.4000 0.4000 0.2000 (164474 PWs)   bands (ev):

   -25.2596 -24.9024 -24.6297 -24.2069 -21.8838 -21.5774 -21.1505 -18.9965
   -17.2184 -16.7789 -14.8761 -14.7715 -13.7296 -13.2461 -12.6434 -12.5891
   -12.1402 -11.8656 -11.2326 -11.1813 -10.6619 -10.4698 -10.4389  -9.8169
    -9.6452  -9.3299  -9.2126  -9.0880  -8.9485  -8.7109  -8.4997  -8.2066
    -7.8071  -7.7574  -7.6515  -7.4953  -6.6721  -5.5062  -5.2191  -5.1213
    -4.8310  -4.5707  -4.3577  -4.0497

          k =-0.4000-0.4000 0.4000 (164455 PWs)   bands (ev):

   -25.2596 -24.9024 -24.6297 -24.2069 -21.8838 -21.5774 -21.1505 -18.9965
   -17.2184 -16.7789 -14.8761 -14.7715 -13.7296 -13.2461 -12.6434 -12.5891
   -12.1402 -11.8656 -11.2326 -11.1813 -10.6619 -10.4698 -10.4389  -9.8169
    -9.6452  -9.3299  -9.2126  -9.0880  -8.9485  -8.7109  -8.4996  -8.2066
    -7.8071  -7.7574  -7.6515  -7.4953  -6.6720  -5.5062  -5.2191  -5.1213
    -4.8310  -4.5707  -4.3577  -4.0496

          k =-0.4000 0.4000-0.4000 (164455 PWs)   bands (ev):

   -25.2596 -24.9024 -24.6297 -24.2069 -21.8838 -21.5774 -21.1505 -18.9965
   -17.2184 -16.7789 -14.8761 -14.7715 -13.7296 -13.2461 -12.6434 -12.5891
   -12.1402 -11.8656 -11.2326 -11.1813 -10.6619 -10.4698 -10.4389  -9.8169
    -9.6452  -9.3299  -9.2126  -9.0880  -8.9485  -8.7109  -8.4996  -8.2066
    -7.8071  -7.7574  -7.6515  -7.4953  -6.6720  -5.5062  -5.2191  -5.1213
    -4.8310  -4.5707  -4.3577  -4.0496

          k = 0.4000-0.4000-0.4000 (164455 PWs)   bands (ev):

   -25.2596 -24.9024 -24.6297 -24.2069 -21.8838 -21.5774 -21.1505 -18.9965
   -17.2184 -16.7789 -14.8761 -14.7715 -13.7296 -13.2461 -12.6434 -12.5891
   -12.1402 -11.8656 -11.2326 -11.1813 -10.6619 -10.4698 -10.4389  -9.8169
    -9.6452  -9.3299  -9.2126  -9.0880  -8.9485  -8.7109  -8.4996  -8.2066
    -7.8071  -7.7574  -7.6515  -7.4953  -6.6720  -5.5062  -5.2191  -5.1213
    -4.8310  -4.5707  -4.3577  -4.0496

     highest occupied level (ev):    -4.0494

!    total energy              =    -412.60210673 Ry
     Harris-Foulkes estimate   =    -412.60210672 Ry
     estimated scf accuracy    <       0.00000005 Ry

     total all-electron energy =     -1554.227008 Ry

     The total energy is the sum of the following terms:

     one-electron contribution =    -976.46645521 Ry
     hartree contribution      =     505.23287183 Ry
     xc contribution           =     -93.92716395 Ry
     ewald contribution        =     259.87034788 Ry
     one-center paw contrib.   =    -107.31170728 Ry

     convergence has been achieved in  11 iterations

     Writing output data file aiida.save

     init_run     :    436.64s CPU    445.21s WALL (       1 calls)
     electrons    :   8983.61s CPU   9181.16s WALL (       1 calls)

     Called by init_run:
     wfcinit      :    418.98s CPU    426.90s WALL (       1 calls)
     potinit      :      3.37s CPU      3.56s WALL (       1 calls)

     Called by electrons:
     c_bands      :   7822.21s CPU   8000.48s WALL (      11 calls)
     sum_band     :   1075.42s CPU   1093.28s WALL (      11 calls)
     v_of_rho     :     18.06s CPU     18.28s WALL (      12 calls)
     newd         :     65.80s CPU     66.90s WALL (      12 calls)
     mix_rho      :      3.28s CPU      3.38s WALL (      11 calls)

     Called by c_bands:
     init_us_2    :     51.60s CPU     52.84s WALL (    1449 calls)
     cegterg      :   7722.24s CPU   7895.96s WALL (     693 calls)

     Called by *egterg:
     h_psi        :   5133.99s CPU   5229.57s WALL (    3205 calls)
     s_psi        :    981.58s CPU    995.03s WALL (    3205 calls)
     g_psi        :      9.60s CPU      9.72s WALL (    2449 calls)
     cdiaghg      :     57.96s CPU     59.39s WALL (    3142 calls)

     Called by h_psi:
     add_vuspsi   :    983.68s CPU    998.22s WALL (    3205 calls)

     General routines
     calbec       :   1327.19s CPU   1346.06s WALL (    3898 calls)
     fft          :     21.14s CPU     21.37s WALL (     188 calls)
     ffts         :      0.63s CPU      0.65s WALL (      23 calls)
     fftw         :   2976.62s CPU   3039.69s WALL (  202014 calls)
     interpolate  :      3.04s CPU      3.11s WALL (      23 calls)
     davcio       :      0.03s CPU      1.17s WALL (      63 calls)

     Parallel routines
     fft_scatter  :   1395.80s CPU   1432.77s WALL (  202225 calls)

     PAW routines
     PAW_pot      :      3.36s CPU      3.38s WALL (      12 calls)

     PWSCF        :     2h37m CPU        2h40m WALL


   This run was terminated on:  20: 1:41   6Jan2023            

=------------------------------------------------------------------------------=
   JOB DONE.
=------------------------------------------------------------------------------=
