
     Program PWSCF v.5.1 starts on  6Jan2023 at 20: 1:42 

     This program is part of the open-source Quantum ESPRESSO suite
     for quantum simulation of materials; please cite
         "P. Giannozzi et al., J. Phys.:Condens. Matter 21 395502 (2009);
          URL http://www.quantum-espresso.org", 
     in publications or presentations arising from this work. More details at
     http://www.quantum-espresso.org/quote

     Parallel version (MPI), running on    12 processors
     R & G space division:  proc/nbgrp/npool/nimage =      12
     Waiting for input...
     Reading input from standard input

     Current dimensions of program PWSCF are:
     Max number of different atomic species (ntypx) = 10
     Max number of k-points (npk) =  40000
     Max angular momentum in pseudopotentials (lmaxx) =  3
               file C.pbesol-n-kjpaw_psl.1.0.0.UPF: wavefunction(s)  2S 2P renormalized
               file H.pbesol-kjpaw_psl.0.1.UPF: wavefunction(s)  1S renormalized
               file N.pbesol-n-kjpaw_psl.0.1.UPF: wavefunction(s)  2P renormalized
               file O.pbesol-n-kjpaw_psl.0.1.UPF: wavefunction(s)  2P renormalized

     Subspace diagonalization in iterative solution of the eigenvalue problem:
     scalapack distributed-memory algorithm (size of sub-group:  2*  2 procs)


     Parallelization info
     --------------------
     sticks:   dense  smooth     PW     G-vecs:    dense   smooth      PW
     Min        2417    1207    317               310023   109597   14791
     Max        2418    1208    318               310028   109633   14794
     Sum       29005   14485   3809              3720285  1315387  177509



     bravais-lattice index     =            0
     lattice parameter (alat)  =      22.5090  a.u.
     unit-cell volume          =   11404.2970 (a.u.)^3
     number of atoms/cell      =           32
     number of atomic types    =            4
     number of electrons       =        88.00
     number of Kohn-Sham states=           44
     kinetic-energy cutoff     =      90.0000  Ry
     charge density cutoff     =     720.0000  Ry
     convergence threshold     =      1.0E-07
     mixing beta               =       0.4000
     number of iterations used =            8  plain     mixing
     Exchange-correlation      =  SLA  PW   PSX  PSC ( 1  4 10  8 0)

     celldm(1)=  22.508999  celldm(2)=   0.000000  celldm(3)=   0.000000
     celldm(4)=   0.000000  celldm(5)=   0.000000  celldm(6)=   0.000000

     crystal axes: (cart. coord. in units of alat)
               a(1) = (   1.000000   0.000000   0.000000 )  
               a(2) = (   0.000000   1.000000   0.000000 )  
               a(3) = (   0.000000   0.000000   1.000000 )  

     reciprocal axes: (cart. coord. in units 2 pi/alat)
               b(1) = (  1.000000  0.000000  0.000000 )  
               b(2) = (  0.000000  1.000000  0.000000 )  
               b(3) = (  0.000000  0.000000  1.000000 )  


     PseudoPot. # 1 for  C read from file:
     ./pseudo/C.pbesol-n-kjpaw_psl.1.0.0.UPF
     MD5 check sum: 5f3a56537b2bcef3348431d8311bb923
     Pseudo is Projector augmented-wave + core cor, Zval =  4.0
     Generated using "atomic" code by A. Dal Corso  v.6.0 svn rev. 13079
     Shape of augmentation charge: PSQ
     Using radial grid of 1073 points,  4 beta functions with: 
                l(1) =   0
                l(2) =   0
                l(3) =   1
                l(4) =   1
     Q(r) pseudized with 0 coefficients 


     PseudoPot. # 2 for  H read from file:
     ./pseudo/H.pbesol-kjpaw_psl.0.1.UPF
     MD5 check sum: 27a6b98f1514c59d399e798f1258b8b7
     Pseudo is Projector augmented-wave, Zval =  1.0
     Generated using "atomic" code by A. Dal Corso  v.5.0.2 svn rev. 9415
     Shape of augmentation charge: PSQ
     Using radial grid of  929 points,  2 beta functions with: 
                l(1) =   0
                l(2) =   0
     Q(r) pseudized with 0 coefficients 


     PseudoPot. # 3 for  N read from file:
     ./pseudo/N.pbesol-n-kjpaw_psl.0.1.UPF
     MD5 check sum: 15bd223d5d75e9eda893d0f4e6bdad1b
     Pseudo is Projector augmented-wave + core cor, Zval =  5.0
     Generated using "atomic" code by A. Dal Corso  v.6.3
     Shape of augmentation charge: PSQ
     Using radial grid of 1085 points,  4 beta functions with: 
                l(1) =   0
                l(2) =   0
                l(3) =   1
                l(4) =   1
     Q(r) pseudized with 0 coefficients 


     PseudoPot. # 4 for  O read from file:
     ./pseudo/O.pbesol-n-kjpaw_psl.0.1.UPF
     MD5 check sum: 81d73d1479e654e5638b0319f0d6c2c7
     Pseudo is Projector augmented-wave + core cor, Zval =  6.0
     Generated using "atomic" code by A. Dal Corso  v.6.0 svn rev. 13079
     Shape of augmentation charge: BESSEL
     Using radial grid of 1095 points,  4 beta functions with: 
                l(1) =   0
                l(2) =   0
                l(3) =   1
                l(4) =   1
     Q(r) pseudized with 0 coefficients 


     atomic species   valence    mass     pseudopotential
        C              4.00    12.01070      C( 1.00)
        H              1.00     1.00794      H( 1.00)
        N              5.00    14.00670      N( 1.00)
        O              6.00    15.99940      O( 1.00)

     No symmetry found



   Cartesian axes

     site n.     atom                  positions (alat units)
         1           H   tau(   1) = (   0.6590510   0.8635640   0.7850250  )
         2           H   tau(   2) = (   0.6030540   0.9000000   0.6637950  )
         3           H   tau(   3) = (   0.7401510   0.7250390   0.7055200  )
         4           H   tau(   4) = (   0.7513170   0.7375490   0.5035260  )
         5           H   tau(   5) = (   0.5660300   0.6326900   0.7829260  )
         6           H   tau(   6) = (   0.6292480   0.5594820   0.6669850  )
         7           H   tau(   7) = (   0.4522720   0.5637630   0.6245880  )
         8           H   tau(   8) = (   0.6651800   0.2951100   0.4626400  )
         9           H   tau(   9) = (   0.4817400   0.2682440   0.4519780  )
        10           H   tau(  10) = (   0.5842480   0.1604470   0.2350400  )
        11           H   tau(  11) = (   0.4064330   0.3194560   0.2416730  )
        12           H   tau(  12) = (   0.5143140   0.4247350   0.2645920  )
        13           H   tau(  13) = (   0.4003880   0.4353970   0.4581070  )
        14           H   tau(  14) = (   0.2896530   0.3946800   0.3648340  )
        15           H   tau(  15) = (   0.6380630   0.4060130   0.3843110  )
        16           H   tau(  16) = (   0.2853710   0.6493130   0.2155630  )
        17           H   tau(  17) = (   0.2486830   0.5070940   0.2149750  )
        18           C   tau(  18) = (   0.6572040   0.7383040   0.6691680  )
        19           C   tau(  19) = (   0.6704690   0.7541710   0.5429850  )
        20           C   tau(  20) = (   0.5838280   0.6344530   0.6931790  )
        21           C   tau(  21) = (   0.5211980   0.2811730   0.3703750  )
        22           C   tau(  22) = (   0.5245570   0.1722850   0.3033790  )
        23           C   tau(  23) = (   0.4551260   0.3666390   0.3031270  )
        24           C   tau(  24) = (   0.3721800   0.4338020   0.3710460  )
        25           C   tau(  25) = (   0.3648760   0.5525130   0.3290690  )
        26           N   tau(  26) = (   0.6091830   0.8381260   0.7213870  )
        27           N   tau(  27) = (   0.6368040   0.3213040   0.3871650  )
        28           N   tau(  28) = (   0.2942700   0.5710670   0.2469620  )
        29           O   tau(  29) = (   0.5907130   0.7856540   0.4848880  )
        30           O   tau(  30) = (   0.4801450   0.6386510   0.6354180  )
        31           O   tau(  31) = (   0.4589880   0.1000000   0.3287330  )
        32           O   tau(  32) = (   0.4210410   0.6265610   0.3706270  )

     number of k points=   112

     Number of k-points >= 100: set verbosity='high' to print them.

     Dense  grid:  3720285 G-vectors     FFT dimensions: ( 200, 200, 200)

     Smooth grid:  1315387 G-vectors     FFT dimensions: ( 135, 135, 135)

     Largest allocated arrays     est. size (Mb)     dimensions
        Kohn-Sham Wavefunctions         9.27 Mb     (   13802,   44)
        NL pseudopotentials            32.43 Mb     (   13802,  154)
        Each V/rho on FFT grid         10.38 Mb     (  680000)
        Each G-vector array             2.37 Mb     (  310025)
        G-vector shells                 0.06 Mb     (    7670)
     Largest temporary arrays     est. size (Mb)     dimensions
        Auxiliary wavefunctions        37.07 Mb     (   13802,  176)
        Each subspace H/S matrix        0.12 Mb     (      88,   88)
        Each <psi_i|beta_j> matrix      0.10 Mb     (     154,   44)
        Arrays for rho mixing          83.01 Mb     (  680000,    8)

     Initial potential from superposition of free atoms
     Check: negative starting charge=   -0.000121

     starting charge   87.99945, renormalised to   88.00000

     negative rho (up, down):  1.212E-04 0.000E+00
     Starting wfc are   77 randomized atomic wfcs
     Checking if some PAW data can be deallocated... 

     total cpu time spent up to now is      825.4 secs

     per-process dynamical memory:  1258.9 Mb

     Self-consistent Calculation

     iteration #  1     ecut=    90.00 Ry     beta=0.40
     Davidson diagonalization with overlap
     ethr =  1.00E-02,  avg # of iterations =  2.0

     negative rho (up, down):  1.807E-04 0.000E+00

     total cpu time spent up to now is     2446.0 secs

     total energy              =    -412.01497768 Ry
     Harris-Foulkes estimate   =    -414.00918350 Ry
     estimated scf accuracy    <       4.10394499 Ry

     iteration #  2     ecut=    90.00 Ry     beta=0.40
     Davidson diagonalization with overlap
     ethr =  4.66E-03,  avg # of iterations =  3.0

     negative rho (up, down):  2.382E-04 0.000E+00

     total cpu time spent up to now is     4015.5 secs

     total energy              =    -412.58042719 Ry
     Harris-Foulkes estimate   =    -412.74409771 Ry
     estimated scf accuracy    <       0.45321677 Ry

     iteration #  3     ecut=    90.00 Ry     beta=0.40
     Davidson diagonalization with overlap
     ethr =  5.15E-04,  avg # of iterations =  4.0

     negative rho (up, down):  3.229E-04 0.000E+00

     total cpu time spent up to now is     5359.8 secs

     total energy              =    -412.59193155 Ry
     Harris-Foulkes estimate   =    -412.64500221 Ry
     estimated scf accuracy    <       0.14377252 Ry

     iteration #  4     ecut=    90.00 Ry     beta=0.40
     Davidson diagonalization with overlap
     ethr =  1.63E-04,  avg # of iterations =  4.0

     negative rho (up, down):  4.058E-04 0.000E+00

     total cpu time spent up to now is     6562.0 secs

     total energy              =    -412.59765165 Ry
     Harris-Foulkes estimate   =    -412.60947029 Ry
     estimated scf accuracy    <       0.03178639 Ry

     iteration #  5     ecut=    90.00 Ry     beta=0.40
     Davidson diagonalization with overlap
     ethr =  3.61E-05,  avg # of iterations =  4.0

     negative rho (up, down):  4.126E-04 0.000E+00

     total cpu time spent up to now is     7667.9 secs

     total energy              =    -412.60135732 Ry
     Harris-Foulkes estimate   =    -412.60269018 Ry
     estimated scf accuracy    <       0.00292504 Ry

     iteration #  6     ecut=    90.00 Ry     beta=0.40
     Davidson diagonalization with overlap
     ethr =  3.32E-06,  avg # of iterations =  4.0

     negative rho (up, down):  4.174E-04 0.000E+00

     total cpu time spent up to now is     8522.9 secs

     total energy              =    -412.60200609 Ry
     Harris-Foulkes estimate   =    -412.60218069 Ry
     estimated scf accuracy    <       0.00054350 Ry

     iteration #  7     ecut=    90.00 Ry     beta=0.40
     Davidson diagonalization with overlap
     ethr =  6.18E-07,  avg # of iterations =  4.0

     negative rho (up, down):  4.145E-04 0.000E+00

     total cpu time spent up to now is     9287.7 secs

     total energy              =    -412.60207929 Ry
     Harris-Foulkes estimate   =    -412.60212984 Ry
     estimated scf accuracy    <       0.00013472 Ry

     iteration #  8     ecut=    90.00 Ry     beta=0.40
     Davidson diagonalization with overlap
     ethr =  1.53E-07,  avg # of iterations =  3.9

     negative rho (up, down):  4.120E-04 0.000E+00

     total cpu time spent up to now is    10175.5 secs

     total energy              =    -412.60210398 Ry
     Harris-Foulkes estimate   =    -412.60210578 Ry
     estimated scf accuracy    <       0.00001398 Ry

     iteration #  9     ecut=    90.00 Ry     beta=0.40
     Davidson diagonalization with overlap
     ethr =  1.59E-08,  avg # of iterations =  3.0

     negative rho (up, down):  4.110E-04 0.000E+00

     total cpu time spent up to now is    12008.2 secs

     total energy              =    -412.60210611 Ry
     Harris-Foulkes estimate   =    -412.60210646 Ry
     estimated scf accuracy    <       0.00000271 Ry

     iteration # 10     ecut=    90.00 Ry     beta=0.40
     Davidson diagonalization with overlap
     ethr =  3.08E-09,  avg # of iterations =  3.9

     negative rho (up, down):  4.103E-04 0.000E+00

     total cpu time spent up to now is    13681.7 secs

     total energy              =    -412.60210668 Ry
     Harris-Foulkes estimate   =    -412.60210668 Ry
     estimated scf accuracy    <       0.00000046 Ry

     iteration # 11     ecut=    90.00 Ry     beta=0.40
     Davidson diagonalization with overlap
     ethr =  5.18E-10,  avg # of iterations =  3.0

     negative rho (up, down):  4.104E-04 0.000E+00

     total cpu time spent up to now is    15035.8 secs

     End of self-consistent calculation

     Number of k-points >= 100: set verbosity='high' to print the bands.

     highest occupied level (ev):    -4.0494

!    total energy              =    -412.60210674 Ry
     Harris-Foulkes estimate   =    -412.60210673 Ry
     estimated scf accuracy    <       0.00000004 Ry

     total all-electron energy =     -1554.227008 Ry

     The total energy is the sum of the following terms:

     one-electron contribution =    -976.46647573 Ry
     hartree contribution      =     505.23288754 Ry
     xc contribution           =     -93.92716002 Ry
     ewald contribution        =     259.87034788 Ry
     one-center paw contrib.   =    -107.31170640 Ry

     convergence has been achieved in  11 iterations

     Writing output data file aiida.save

     init_run     :    795.26s CPU    823.81s WALL (       1 calls)
     electrons    :  13812.95s CPU  14210.85s WALL (       1 calls)

     Called by init_run:
     wfcinit      :    778.22s CPU    803.90s WALL (       1 calls)
     potinit      :      3.62s CPU      4.32s WALL (       1 calls)

     Called by electrons:
     c_bands      :  12131.72s CPU  12500.04s WALL (      11 calls)
     sum_band     :   1605.24s CPU   1633.87s WALL (      11 calls)
     v_of_rho     :     16.68s CPU     17.17s WALL (      12 calls)
     newd         :     58.69s CPU     59.38s WALL (      12 calls)
     mix_rho      :      2.90s CPU      2.97s WALL (      11 calls)

     Called by c_bands:
     init_us_2    :     77.52s CPU     79.70s WALL (    2576 calls)
     cegterg      :  11976.68s CPU  12337.56s WALL (    1232 calls)

     Called by *egterg:
     h_psi        :   8146.72s CPU   8356.05s WALL (    5696 calls)
     s_psi        :   1475.41s CPU   1506.83s WALL (    5696 calls)
     g_psi        :     14.82s CPU     15.17s WALL (    4352 calls)
     cdiaghg      :     90.19s CPU     93.82s WALL (    5584 calls)

     Called by h_psi:
     add_vuspsi   :   1483.92s CPU   1516.50s WALL (    5696 calls)

     General routines
     calbec       :   2018.48s CPU   2058.95s WALL (    6928 calls)
     fft          :     18.48s CPU     18.95s WALL (     188 calls)
     ffts         :      0.59s CPU      0.60s WALL (      23 calls)
     fftw         :   4816.94s CPU   4952.40s WALL (  359552 calls)
     interpolate  :      2.59s CPU      2.66s WALL (      23 calls)
     davcio       :      0.59s CPU      9.32s WALL (     112 calls)

     Parallel routines
     fft_scatter  :   2398.12s CPU   2482.67s WALL (  359763 calls)

     PAW routines
     PAW_pot      :      2.94s CPU      2.95s WALL (      12 calls)

     PWSCF        :     4h 3m CPU        4h10m WALL


   This run was terminated on:   0:12:30   7Jan2023            

=------------------------------------------------------------------------------=
   JOB DONE.
=------------------------------------------------------------------------------=
